#INFO: **** input file is /blue/bartlett/z.windom/MOLSSI_develop/DEVELOP_CC_T2/UT2/UT2/tests/test_RHF_UHF_energyequiv.py ****
import pytest

import UT2

import numpy as np
import pyscf
from pyscf import ao2mo
import itertools
from UT2.run_ccd import * 

def test_Size_consistencyRHFT2():
    # run pyscf for some reason
    basis = ['ccpvdz']#,'6-31G','ccpvtz']#,'augccpvdz','augccdpvtz']
    atomString = ['F 0 0 0; F 0 0 1.1']
    testMethods=[{"ccdType":"CCD"}] #,{"ccdType":"CCDQf-1"},{"ccdType":"CCDQf-2"},{"ccdType":"CCD(Qf)"},{"ccdType":"pCCD"}]
    value=[]
    count=0
    for bas, molecule,method in itertools.product(basis, atomString,testMethods):
        mol = pyscf.M(
            atom=molecule,
            verbose=5,
            basis=bas)


        for i in range(2):
            if i==0:
                mf = mol.RHF()
            else:
                mf = mol.UHF()

            mf.conv_tol_grad=1E-10
            mf.run()
    
    
            orb=mf.mo_coeff
            cc_runtype=method   #{"ccdType":"CCDQf-1"}
    
            correlatedEnergy,corrCo=ccd_main(mf,mol,orb,cc_runtype)
            value.append(correlatedEnergy)
            print('Final energy:', correlatedEnergy)
            if count%2 == 1:
                diff=abs(abs(value[0])-abs(value[1]))
                assert diff <= 10**-10
                value=[]
            count+=1
            print('Final energy:', correlatedEnergy)

#    diff=value[0]-value[1]*2
#    assert diff <= 10**-10

def main():
    basis = ['ccpvdz']#,'ccpvtz','augccpvdz','augccdpvtz']
    atomString = ['Ne 0 0 0; Ne 0 0 50', 'Ne 0 0 0']
    testMethods=[{"ccdType":"CCD"}]

test_Size_consistencyRHFT2()
#INFO: ******************** input file end ********************


System: uname_result(system='Linux', node='login5.ufhpc', release='3.10.0-1160.80.1.el7.x86_64', version='#1 SMP Sat Oct 8 18:13:21 UTC 2022', machine='x86_64')  Threads 28
Python 3.10.9 | packaged by conda-forge | (main, Feb  2 2023, 20:20:04) [GCC 11.3.0]
numpy 1.24.2  scipy 1.10.1
Date: Fri Mar  3 22:26:08 2023
PySCF version 2.1.1
PySCF path  /home/z.windom/.conda/envs/ultT2Dev/lib/python3.10/site-packages/pyscf

[ENV] PYSCF_INC_DIR /home/z.windom/libxc-4.3.4
[CONFIG] conf_file /home/z.windom/.pyscf_conf.py
[INPUT] verbose = 5
[INPUT] max_memory = 4000 
[INPUT] num. atoms = 2
[INPUT] num. electrons = 18
[INPUT] charge = 0
[INPUT] spin (= nelec alpha-beta = 2S) = 0
[INPUT] symmetry False subgroup None
[INPUT] Mole.unit = angstrom
[INPUT] Symbol           X                Y                Z      unit          X                Y                Z       unit  Magmom
[INPUT]  1 F      0.000000000000   0.000000000000   0.000000000000 AA    0.000000000000   0.000000000000   0.000000000000 Bohr   0.0
[INPUT]  2 F      0.000000000000   0.000000000000   1.100000000000 AA    0.000000000000   0.000000000000   2.078698737022 Bohr   0.0
[INPUT] ---------------- BASIS SET ---------------- 
[INPUT] l, kappa, [nprim/nctr], expnt,             c_1 c_2 ...
[INPUT] F
[INPUT] 0    0    [8    /2   ]  14710             0.000721 -0.000165
                                2207              0.005553 -0.001308
                                502.8             0.028267 -0.006495
                                142.6             0.106444 -0.026691
                                46.47             0.286814 -0.07369
                                16.7              0.448641 -0.170776
                                6.356             0.264761 -0.112327
                                1.316             0.015333 0.562814
[INPUT] 0    0    [1    /1   ]  0.3897               1
[INPUT] 1    0    [3    /1   ]  22.67             0.044878
                                4.977             0.235718
                                1.347             0.508521
[INPUT] 1    0    [1    /1   ]  0.3471               1
[INPUT] 2    0    [1    /1   ]  1.64                 1

nuclear repulsion = 38.9666855313818
number of shells = 10
number of NR pGTOs = 52
number of NR cGTOs = 28
basis = ccpvdz
ecp = {}
CPU time:         4.02


******** <class 'pyscf.scf.hf.RHF'> ********
method = RHF
initial guess = minao
damping factor = 0
level_shift factor = 0
DIIS = <class 'pyscf.scf.diis.CDIIS'>
diis_start_cycle = 1
diis_space = 8
SCF conv_tol = 1e-09
SCF conv_tol_grad = 1e-10
SCF max_cycles = 50
direct_scf = True
direct_scf_tol = 1e-13
chkfile to save SCF result = /blue/bartlett/z.windom/MOLSSI_develop/DEVELOP_CC_T2/UT2/UT2/tests/tmpu1zbowbe
max_memory 4000 MB (current use 75 MB)
E1 = -354.90265279933885  E_coul = 116.50712498515651
init E= -199.428842282801
cond(S) = 118.46506244165407
    CPU time for initialize scf      1.34 sec, wall time      0.08 sec
  HOMO = -0.416769942159802  LUMO = 0.229635733232004
  mo_energy =
[-26.50771498 -26.50501782  -2.33604833  -1.4032567   -0.9089311
  -0.9089311   -0.90761192  -0.41676994  -0.41676994   0.22963573
   1.21949971   1.33546629   1.33546629   1.42606446   1.46505353
   1.46505353   1.69721168   2.46564467   3.27157598   3.27157598
   3.68636325   3.68636325   3.96847602   4.00448417   4.00448417
   4.75751471   4.75751471   5.5348962 ]
E1 = -354.2010698141552  E_coul = 116.66729664334169
cycle= 1 E= -198.567087639432  delta_E= 0.862  |g|= 0.459  |ddm|= 1.75
    CPU time for cycle= 1      0.35 sec, wall time      0.02 sec
  HOMO = -0.600553455154559  LUMO = 0.43938602798222
  mo_energy =
[-26.4631689  -26.46253565  -2.09070141  -1.40809492  -0.95451584
  -0.95451584  -0.91376085  -0.60055346  -0.60055346   0.43938603
   1.29349445   1.32391867   1.32391867   1.44701868   1.47184425
   1.47184425   1.69034454   2.47713837   3.24244649   3.24244649
   3.68473526   3.68473526   3.95293464   4.0008047    4.0008047
   4.75708346   4.75708346   5.53951569]
E1 = -355.4007011053751  E_coul = 117.84138742986192
cycle= 2 E= -198.592628144131  delta_E= -0.0255  |g|= 0.12  |ddm|= 0.281
    CPU time for cycle= 2      0.35 sec, wall time      0.02 sec
  HOMO = -0.561719627209867  LUMO = 0.488206818718187
  mo_energy =
[-26.36829918 -26.36766737  -2.0228391   -1.37924428  -0.9089493
  -0.9089493   -0.87071329  -0.56171963  -0.56171963   0.48820682
   1.31782516   1.35631403   1.35631403   1.46788468   1.49521694
   1.49521694   1.72922619   2.50941001   3.29292174   3.29292174
   3.73179522   3.73179522   4.00362544   4.04566626   4.04566626
   4.80154123   4.80154123   5.58226922]
E1 = -354.9703621689981  E_coul = 117.40935240828075
cycle= 3 E= -198.594324229336  delta_E= -0.0017  |g|= 0.0224  |ddm|= 0.0666
    CPU time for cycle= 3      0.35 sec, wall time      0.02 sec
  HOMO = -0.572350358039408  LUMO = 0.477539699371609
  mo_energy =
[-26.39513273 -26.39449833  -2.03470993  -1.38984512  -0.91847166
  -0.91847166  -0.87909864  -0.57235036  -0.57235036   0.4775397
   1.31038657   1.34936272   1.34936272   1.46191588   1.48936628
   1.48936628   1.72213958   2.50265495   3.28267082   3.28267082
   3.72223445   3.72223445   3.9919879    4.03592798   4.03592798
   4.79086623   4.79086623   5.5712105 ]
E1 = -355.06976075332165  E_coul = 117.5086553983488
cycle= 4 E= -198.594419823591  delta_E= -9.56e-05  |g|= 0.00734  |ddm|= 0.0178
    CPU time for cycle= 4      0.35 sec, wall time      0.02 sec
  HOMO = -0.569711791262337  LUMO = 0.480111875940042
  mo_energy =
[-26.3873697  -26.3867307   -2.03162368  -1.38710766  -0.91577974
  -0.91577974  -0.87537868  -0.56971179  -0.56971179   0.48011188
   1.31295339   1.35127941   1.35127941   1.4638043    1.49110019
   1.49110019   1.7242928    2.50457203   3.28568602   3.28568602
   3.72514376   3.72514376   3.99518142   4.03883272   4.03883272
   4.79384322   4.79384322   5.57429737]
E1 = -355.04329897086586  E_coul = 117.48218455911508
cycle= 5 E= -198.594428880369  delta_E= -9.06e-06  |g|= 0.000518  |ddm|= 0.00536
    CPU time for cycle= 5      0.34 sec, wall time      0.02 sec
  HOMO = -0.569744641927738  LUMO = 0.480004104396012
  mo_energy =
[-26.38744838 -26.38680951  -2.03162526  -1.38717432  -0.9157793
  -0.9157793   -0.87530994  -0.56974464  -0.56974464   0.4800041
   1.31292306   1.35127637   1.35127637   1.46379215   1.49107664
   1.49107664   1.72427807   2.50454447   3.28567221   3.28567221
   3.72513842   3.72513842   3.99514483   4.03882069   4.03882069
   4.79380508   4.79380508   5.57425323]
E1 = -355.043452918951  E_coul = 117.48233844634268
cycle= 6 E= -198.594428941227  delta_E= -6.09e-08  |g|= 2.36e-05  |ddm|= 0.000376
    CPU time for cycle= 6      0.34 sec, wall time      0.02 sec
  HOMO = -0.569743326069411  LUMO = 0.480008615159142
  mo_energy =
[-26.38744253 -26.38680366  -2.0316238   -1.38717805  -0.91577694
  -0.91577694  -0.8753046   -0.56974333  -0.56974333   0.48000862
   1.31292748   1.35127902   1.35127902   1.46379666   1.49107836
   1.49107836   1.72428098   2.50454639   3.28567641   3.28567641
   3.72514232   3.72514232   3.99514956   4.03882443   4.03882443
   4.79380884   4.79380884   5.57425698]
E1 = -355.04345052653656  E_coul = 117.48233605378881
cycle= 7 E= -198.594428941366  delta_E= -1.39e-10  |g|= 2.21e-06  |ddm|= 2.18e-05
    CPU time for cycle= 7      0.35 sec, wall time      0.02 sec
  HOMO = -0.569743049686328  LUMO = 0.48000854642832
  mo_energy =
[-26.38744199 -26.38680312  -2.03162343  -1.38717752  -0.9157767
  -0.9157767   -0.87530387  -0.56974305  -0.56974305   0.48000855
   1.31292774   1.35127909   1.35127909   1.463797     1.49107841
   1.49107841   1.72428105   2.50454648   3.28567662   3.28567662
   3.72514256   3.72514256   3.99514965   4.03882468   4.03882468
   4.79380904   4.79380904   5.5742572 ]
E1 = -355.04345013610595  E_coul = 117.48233566335712
cycle= 8 E= -198.594428941367  delta_E= -1.08e-12  |g|= 1.29e-07  |ddm|= 2.01e-06
    CPU time for cycle= 8      0.34 sec, wall time      0.02 sec
  HOMO = -0.569743049591294  LUMO = 0.480008601962182
  mo_energy =
[-26.38744195 -26.38680309  -2.03162343  -1.38717754  -0.91577671
  -0.91577671  -0.87530387  -0.56974305  -0.56974305   0.4800086
   1.31292777   1.35127909   1.35127909   1.46379702   1.49107843
   1.49107843   1.72428107   2.5045465    3.28567663   3.28567663
   3.72514258   3.72514258   3.99514968   4.0388247    4.0388247
   4.79380907   4.79380907   5.57425722]
E1 = -355.04345016106754  E_coul = 117.48233568831893
cycle= 9 E= -198.594428941367  delta_E= 2.27e-13  |g|= 1.16e-08  |ddm|= 1.1e-07
    CPU time for cycle= 9      0.35 sec, wall time      0.02 sec
Linear dependence found in DIIS error vectors.
  HOMO = -0.56974304946507  LUMO = 0.480008598368559
  mo_energy =
[-26.38744195 -26.38680309  -2.03162343  -1.38717754  -0.91577671
  -0.91577671  -0.87530387  -0.56974305  -0.56974305   0.4800086
   1.31292777   1.35127909   1.35127909   1.46379702   1.49107842
   1.49107842   1.72428107   2.5045465    3.28567663   3.28567663
   3.72514258   3.72514258   3.99514968   4.0388247    4.0388247
   4.79380906   4.79380906   5.57425722]
E1 = -355.0434501588023  E_coul = 117.48233568605377
cycle= 10 E= -198.594428941367  delta_E= 1.14e-13  |g|= 8.14e-09  |ddm|= 3.97e-09
    CPU time for cycle= 10      0.35 sec, wall time      0.02 sec
Linear dependence found in DIIS error vectors.
  HOMO = -0.569743049350039  LUMO = 0.480008598835066
  mo_energy =
[-26.38744195 -26.38680309  -2.03162343  -1.38717753  -0.91577671
  -0.91577671  -0.87530387  -0.56974305  -0.56974305   0.4800086
   1.31292777   1.35127909   1.35127909   1.46379702   1.49107842
   1.49107842   1.72428107   2.5045465    3.28567663   3.28567663
   3.72514258   3.72514258   3.99514968   4.0388247    4.0388247
   4.79380906   4.79380906   5.57425722]
E1 = -355.0434501576548  E_coul = 117.48233568490595
cycle= 11 E= -198.594428941367  delta_E= -3.41e-13  |g|= 6.37e-09  |ddm|= 2.31e-09
    CPU time for cycle= 11      0.34 sec, wall time      0.02 sec
Linear dependence found in DIIS error vectors.
  HOMO = -0.569743050348733  LUMO = 0.480008598345877
  mo_energy =
[-26.38744195 -26.38680309  -2.03162343  -1.38717754  -0.91577671
  -0.91577671  -0.87530387  -0.56974305  -0.56974305   0.4800086
   1.31292777   1.35127909   1.35127909   1.46379702   1.49107842
   1.49107842   1.72428107   2.5045465    3.28567663   3.28567663
   3.72514258   3.72514258   3.99514968   4.0388247    4.0388247
   4.79380906   4.79380906   5.57425722]
E1 = -355.0434501622825  E_coul = 117.48233568953411
cycle= 12 E= -198.594428941367  delta_E= 4.55e-13  |g|= 1.47e-09  |ddm|= 5.49e-09
    CPU time for cycle= 12      0.35 sec, wall time      0.02 sec
Linear dependence found in DIIS error vectors.
  HOMO = -0.569743050494617  LUMO = 0.480008598232817
  mo_energy =
[-26.38744195 -26.38680309  -2.03162343  -1.38717754  -0.91577671
  -0.91577671  -0.87530387  -0.56974305  -0.56974305   0.4800086
   1.31292777   1.35127909   1.35127909   1.46379702   1.49107842
   1.49107842   1.72428107   2.5045465    3.28567663   3.28567663
   3.72514258   3.72514258   3.99514968   4.0388247    4.0388247
   4.79380906   4.79380906   5.57425722]
E1 = -355.0434501635475  E_coul = 117.48233569079898
cycle= 13 E= -198.594428941367  delta_E= -1.42e-13  |g|= 1.17e-09  |ddm|= 3.6e-10
    CPU time for cycle= 13      0.34 sec, wall time      0.02 sec
Linear dependence found in DIIS error vectors.
  HOMO = -0.569743050505527  LUMO = 0.48000859825563
  mo_energy =
[-26.38744195 -26.38680309  -2.03162343  -1.38717754  -0.91577671
  -0.91577671  -0.87530387  -0.56974305  -0.56974305   0.4800086
   1.31292777   1.35127909   1.35127909   1.46379702   1.49107842
   1.49107842   1.72428107   2.5045465    3.28567663   3.28567663
   3.72514258   3.72514258   3.99514968   4.0388247    4.0388247
   4.79380906   4.79380906   5.57425722]
E1 = -355.0434501635643  E_coul = 117.48233569081545
cycle= 14 E= -198.594428941367  delta_E= -3.13e-13  |g|= 9.84e-10  |ddm|= 1.99e-10
    CPU time for cycle= 14      0.33 sec, wall time      0.02 sec
Linear dependence found in DIIS error vectors.
  HOMO = -0.569743050499752  LUMO = 0.480008598298149
  mo_energy =
[-26.38744195 -26.38680309  -2.03162343  -1.38717753  -0.91577671
  -0.91577671  -0.87530387  -0.56974305  -0.56974305   0.4800086
   1.31292777   1.35127909   1.35127909   1.46379702   1.49107842
   1.49107842   1.72428107   2.5045465    3.28567663   3.28567663
   3.72514258   3.72514258   3.99514968   4.0388247    4.0388247
   4.79380906   4.79380906   5.57425722]
E1 = -355.0434501634212  E_coul = 117.48233569067287
cycle= 15 E= -198.594428941367  delta_E= 5.12e-13  |g|= 8.1e-10  |ddm|= 2.59e-10
    CPU time for cycle= 15      0.37 sec, wall time      0.02 sec
Linear dependence found in DIIS error vectors.
  HOMO = -0.569743050513205  LUMO = 0.480008598258731
  mo_energy =
[-26.38744195 -26.38680309  -2.03162343  -1.38717754  -0.91577671
  -0.91577671  -0.87530387  -0.56974305  -0.56974305   0.4800086
   1.31292777   1.35127909   1.35127909   1.46379702   1.49107842
   1.49107842   1.72428107   2.5045465    3.28567663   3.28567663
   3.72514258   3.72514258   3.99514968   4.0388247    4.0388247
   4.79380906   4.79380906   5.57425722]
E1 = -355.04345016374384  E_coul = 117.48233569099519
cycle= 16 E= -198.594428941367  delta_E= -3.41e-13  |g|= 8.98e-10  |ddm|= 2.11e-10
    CPU time for cycle= 16      0.34 sec, wall time      0.02 sec
Linear dependence found in DIIS error vectors.
  HOMO = -0.569743050509017  LUMO = 0.480008598240429
  mo_energy =
[-26.38744195 -26.38680309  -2.03162343  -1.38717754  -0.91577671
  -0.91577671  -0.87530387  -0.56974305  -0.56974305   0.4800086
   1.31292777   1.35127909   1.35127909   1.46379702   1.49107842
   1.49107842   1.72428107   2.5045465    3.28567663   3.28567663
   3.72514258   3.72514258   3.99514968   4.0388247    4.0388247
   4.79380906   4.79380906   5.57425722]
E1 = -355.04345016361845  E_coul = 117.4823356908696
cycle= 17 E= -198.594428941367  delta_E= -1.71e-13  |g|= 9.54e-10  |ddm|= 1.99e-10
    CPU time for cycle= 17      0.34 sec, wall time      0.02 sec
Linear dependence found in DIIS error vectors.
  HOMO = -0.569743050526038  LUMO = 0.480008598262572
  mo_energy =
[-26.38744195 -26.38680309  -2.03162343  -1.38717753  -0.91577671
  -0.91577671  -0.87530387  -0.56974305  -0.56974305   0.4800086
   1.31292777   1.35127909   1.35127909   1.46379702   1.49107842
   1.49107842   1.72428107   2.5045465    3.28567663   3.28567663
   3.72514258   3.72514258   3.99514968   4.0388247    4.0388247
   4.79380906   4.79380906   5.57425722]
E1 = -355.04345016355586  E_coul = 117.48233569080737
cycle= 18 E= -198.594428941367  delta_E= 3.41e-13  |g|= 6.34e-10  |ddm|= 3.71e-10
    CPU time for cycle= 18      0.49 sec, wall time      0.03 sec
Linear dependence found in DIIS error vectors.
  HOMO = -0.569743050523992  LUMO = 0.480008598295355
  mo_energy =
[-26.38744195 -26.38680309  -2.03162343  -1.38717753  -0.91577671
  -0.91577671  -0.87530387  -0.56974305  -0.56974305   0.4800086
   1.31292777   1.35127909   1.35127909   1.46379702   1.49107842
   1.49107842   1.72428107   2.5045465    3.28567663   3.28567663
   3.72514258   3.72514258   3.99514968   4.0388247    4.0388247
   4.79380906   4.79380906   5.57425722]
E1 = -355.04345016336543  E_coul = 117.4823356906167
cycle= 19 E= -198.594428941367  delta_E= -2.27e-13  |g|= 3.97e-10  |ddm|= 2.64e-10
    CPU time for cycle= 19      0.36 sec, wall time      0.02 sec
Linear dependence found in DIIS error vectors.
  HOMO = -0.569743050513584  LUMO = 0.480008598324048
  mo_energy =
[-26.38744195 -26.38680309  -2.03162343  -1.38717753  -0.91577671
  -0.91577671  -0.87530387  -0.56974305  -0.56974305   0.4800086
   1.31292777   1.35127909   1.35127909   1.46379702   1.49107842
   1.49107842   1.72428107   2.5045465    3.28567663   3.28567663
   3.72514258   3.72514258   3.99514968   4.0388247    4.0388247
   4.79380906   4.79380906   5.57425722]
E1 = -355.0434501631279  E_coul = 117.48233569037917
cycle= 20 E= -198.594428941367  delta_E=    0  |g|= 2.19e-10  |ddm|= 2.03e-10
    CPU time for cycle= 20      0.35 sec, wall time      0.02 sec
Linear dependence found in DIIS error vectors.
  HOMO = -0.569743050512654  LUMO = 0.480008598331321
  mo_energy =
[-26.38744195 -26.38680309  -2.03162343  -1.38717753  -0.91577671
  -0.91577671  -0.87530387  -0.56974305  -0.56974305   0.4800086
   1.31292777   1.35127909   1.35127909   1.46379702   1.49107842
   1.49107842   1.72428107   2.5045465    3.28567663   3.28567663
   3.72514258   3.72514258   3.99514968   4.0388247    4.0388247
   4.79380906   4.79380906   5.57425722]
E1 = -355.0434501630833  E_coul = 117.48233569033454
cycle= 21 E= -198.594428941367  delta_E= -5.68e-14  |g|= 1.83e-10  |ddm|= 4.48e-11
    CPU time for cycle= 21      0.35 sec, wall time      0.02 sec
Linear dependence found in DIIS error vectors.
  HOMO = -0.569743050517552  LUMO = 0.480008598330973
  mo_energy =
[-26.38744195 -26.38680309  -2.03162343  -1.38717753  -0.91577671
  -0.91577671  -0.87530387  -0.56974305  -0.56974305   0.4800086
   1.31292777   1.35127909   1.35127909   1.46379702   1.49107842
   1.49107842   1.72428107   2.5045465    3.28567663   3.28567663
   3.72514258   3.72514258   3.99514968   4.0388247    4.0388247
   4.79380906   4.79380906   5.57425722]
E1 = -355.0434501631049  E_coul = 117.48233569035604
cycle= 22 E= -198.594428941367  delta_E= -1.14e-13  |g|= 1.54e-10  |ddm|= 3.61e-11
    CPU time for cycle= 22      0.35 sec, wall time      0.02 sec
Linear dependence found in DIIS error vectors.
  HOMO = -0.569743050522154  LUMO = 0.48000859832997
  mo_energy =
[-26.38744195 -26.38680309  -2.03162343  -1.38717753  -0.91577671
  -0.91577671  -0.87530387  -0.56974305  -0.56974305   0.4800086
   1.31292777   1.35127909   1.35127909   1.46379702   1.49107842
   1.49107842   1.72428107   2.5045465    3.28567663   3.28567663
   3.72514258   3.72514258   3.99514968   4.0388247    4.0388247
   4.79380906   4.79380906   5.57425722]
E1 = -355.0434501631255  E_coul = 117.48233569037716
cycle= 23 E= -198.594428941367  delta_E= 5.68e-13  |g|= 1.3e-10  |ddm|= 3.05e-11
    CPU time for cycle= 23      0.35 sec, wall time      0.02 sec
Linear dependence found in DIIS error vectors.
  HOMO = -0.569743050525815  LUMO = 0.480008598328694
  mo_energy =
[-26.38744195 -26.38680309  -2.03162343  -1.38717753  -0.91577671
  -0.91577671  -0.87530387  -0.56974305  -0.56974305   0.4800086
   1.31292777   1.35127909   1.35127909   1.46379702   1.49107842
   1.49107842   1.72428107   2.5045465    3.28567663   3.28567663
   3.72514258   3.72514258   3.99514968   4.0388247    4.0388247
   4.79380906   4.79380906   5.57425722]
E1 = -355.0434501631405  E_coul = 117.48233569039226
cycle= 24 E= -198.594428941366  delta_E= 8.53e-14  |g|= 1.09e-10  |ddm|= 2.45e-11
    CPU time for cycle= 24      0.34 sec, wall time      0.02 sec
Linear dependence found in DIIS error vectors.
  HOMO = -0.569743050531155  LUMO = 0.480008598326278
  mo_energy =
[-26.38744195 -26.38680309  -2.03162343  -1.38717753  -0.91577671
  -0.91577671  -0.87530387  -0.56974305  -0.56974305   0.4800086
   1.31292777   1.35127909   1.35127909   1.46379702   1.49107842
   1.49107842   1.72428107   2.5045465    3.28567663   3.28567663
   3.72514258   3.72514258   3.99514968   4.0388247    4.0388247
   4.79380906   4.79380906   5.57425722]
E1 = -355.0434501631695  E_coul = 117.4823356904208
cycle= 25 E= -198.594428941367  delta_E= -4.55e-13  |g|= 8.64e-11  |ddm|= 2.85e-11
    CPU time for cycle= 25      0.33 sec, wall time      0.02 sec
  HOMO = -0.569743050541472  LUMO = 0.480008598324357
  mo_energy =
[-26.38744195 -26.38680309  -2.03162343  -1.38717753  -0.91577671
  -0.91577671  -0.87530387  -0.56974305  -0.56974305   0.4800086
   1.31292777   1.35127909   1.35127909   1.46379702   1.49107842
   1.49107842   1.72428107   2.5045465    3.28567663   3.28567663
   3.72514258   3.72514258   3.99514968   4.0388247    4.0388247
   4.79380906   4.79380906   5.57425722]
E1 = -355.04345016321747  E_coul = 117.482335690469
Extra cycle  E= -198.594428941367  delta_E= 2.27e-13  |g|= 2.27e-11  |ddm|= 7.78e-11
    CPU time for scf_cycle     10.48 sec, wall time      0.54 sec
    CPU time for SCF     10.49 sec, wall time      0.54 sec
converged SCF energy = -198.594428941367
shape of numpy coeff rhf: (2, 28, 28)
total 2e- integral energy: 117.48233569046906
(28, 28, 28, 28)
final rhf/uhf energy: -198.59442894136671
moE: [-26.38744195 -26.38680309  -2.03162343  -1.38717753  -0.91577671
  -0.91577671  -0.87530387  -0.56974305  -0.56974305   0.4800086
   1.31292777   1.35127909   1.35127909   1.46379702   1.49107842
   1.49107842   1.72428107   2.5045465    3.28567663   3.28567663
   3.72514258   3.72514258   3.99514968   4.0388247    4.0388247
   4.79380906   4.79380906   5.57425722] [-26.38744195 -26.38680309  -2.03162343  -1.38717753  -0.91577671
  -0.91577671  -0.87530387  -0.56974305  -0.56974305   0.4800086
   1.31292777   1.35127909   1.35127909   1.46379702   1.49107842
   1.49107842   1.72428107   2.5045465    3.28567663   3.28567663
   3.72514258   3.72514258   3.99514968   4.0388247    4.0388247
   4.79380906   4.79380906   5.57425722]
slice(None, 9, None) slice(9, None, None)
eabij_aa: [[[[-0.01860988 -0.0186101  -0.03403782 ... -0.03543239 -0.03582021
    -0.03582021]
   [-0.0186101  -0.01861032 -0.03403856 ... -0.03543319 -0.03582103
    -0.03582103]
   [-0.03403782 -0.03403856 -0.19907375 ... -0.25860211 -0.28078974
    -0.28078974]
   ...
   [-0.03543239 -0.03543319 -0.25860211 ... -0.36891862 -0.41578933
    -0.41578933]
   [-0.03582021 -0.03582103 -0.28078974 ... -0.41578933 -0.47630313
    -0.47630313]
   [-0.03582021 -0.03582103 -0.28078974 ... -0.41578933 -0.47630313
    -0.47630313]]

  [[-0.01832582 -0.01832603 -0.03309943 ... -0.03441668 -0.03478246
    -0.03478246]
   [-0.01832603 -0.01832625 -0.03310013 ... -0.03441743 -0.03478323
    -0.03478323]
   [-0.03309943 -0.03310013 -0.17075968 ... -0.21277213 -0.22756738
    -0.22756738]
   ...
   [-0.03441668 -0.03441743 -0.21277213 ... -0.28220335 -0.30883421
    -0.30883421]
   [-0.03478246 -0.03478323 -0.22756738 ... -0.30883421 -0.34101498
    -0.34101498]
   [-0.03478246 -0.03478323 -0.22756738 ... -0.30883421 -0.34101498
    -0.34101498]]

  [[-0.01831295 -0.01831316 -0.03305747 ... -0.03437131 -0.03473613
    -0.03473613]
   [-0.01831316 -0.01831338 -0.03305816 ... -0.03437206 -0.0347369
    -0.0347369 ]
   [-0.03305747 -0.03305816 -0.16964868 ... -0.21104994 -0.22559847
    -0.22559847]
   ...
   [-0.03437131 -0.03437206 -0.21104994 ... -0.2791818  -0.30521913
    -0.30521913]
   [-0.03473613 -0.0347369  -0.22559847 ... -0.30521913 -0.33661264
    -0.33661264]
   [-0.03473613 -0.0347369  -0.22559847 ... -0.30521913 -0.33661264
    -0.33661264]]

  ...

  [[-0.01722691 -0.0172271  -0.02967986 ... -0.03073465 -0.03102603
    -0.03102603]
   [-0.0172271  -0.01722729 -0.02968042 ... -0.03073526 -0.03102664
    -0.03102664]
   [-0.02967986 -0.02968042 -0.10710004 ... -0.12223826 -0.12698116
    -0.12698116]
   ...
   [-0.03073465 -0.03073526 -0.12223826 ... -0.1423604  -0.14883467
    -0.14883467]
   [-0.03102603 -0.03102664 -0.12698116 ... -0.14883467 -0.15592587
    -0.15592587]
   [-0.03102603 -0.03102664 -0.12698116 ... -0.14883467 -0.15592587
    -0.15592587]]

  [[-0.01722691 -0.0172271  -0.02967986 ... -0.03073465 -0.03102603
    -0.03102603]
   [-0.0172271  -0.01722729 -0.02968042 ... -0.03073526 -0.03102664
    -0.03102664]
   [-0.02967986 -0.02968042 -0.10710004 ... -0.12223826 -0.12698116
    -0.12698116]
   ...
   [-0.03073465 -0.03073526 -0.12223826 ... -0.1423604  -0.14883467
    -0.14883467]
   [-0.03102603 -0.03102664 -0.12698116 ... -0.14883467 -0.15592587
    -0.15592587]
   [-0.03102603 -0.03102664 -0.12698116 ... -0.14883467 -0.15592587
    -0.15592587]]

  [[-0.01699838 -0.01699856 -0.02900793 ... -0.0300147  -0.03029252
    -0.03029252]
   [-0.01699856 -0.01699875 -0.02900847 ... -0.03001527 -0.03029311
    -0.03029311]
   [-0.02900793 -0.02900847 -0.09883852 ... -0.11159228 -0.11553171
    -0.11553171]
   ...
   [-0.0300147  -0.03001527 -0.11159228 ... -0.12812507 -0.13334555
    -0.13334555]
   [-0.03029252 -0.03029311 -0.11553171 ... -0.13334555 -0.13900952
    -0.13900952]
   [-0.03029252 -0.03029311 -0.11553171 ... -0.13334555 -0.13900952
    -0.13900952]]]


 [[[-0.01832582 -0.01832603 -0.03309943 ... -0.03441668 -0.03478246
    -0.03478246]
   [-0.01832603 -0.01832625 -0.03310013 ... -0.03441743 -0.03478323
    -0.03478323]
   [-0.03309943 -0.03310013 -0.17075968 ... -0.21277213 -0.22756738
    -0.22756738]
   ...
   [-0.03441668 -0.03441743 -0.21277213 ... -0.28220335 -0.30883421
    -0.30883421]
   [-0.03478246 -0.03478323 -0.22756738 ... -0.30883421 -0.34101498
    -0.34101498]
   [-0.03478246 -0.03478323 -0.22756738 ... -0.30883421 -0.34101498
    -0.34101498]]

  [[-0.0180503  -0.01805051 -0.03221139 ... -0.03345757 -0.03380315
    -0.03380315]
   [-0.01805051 -0.01805072 -0.03221205 ... -0.03345829 -0.03380388
    -0.03380388]
   [-0.03221139 -0.03221205 -0.14949689 ... -0.18074087 -0.1913062
    -0.1913062 ]
   ...
   [-0.03345757 -0.03345829 -0.18074087 ... -0.22849501 -0.24564578
    -0.24564578]
   [-0.03380315 -0.03380388 -0.1913062  ... -0.24564578 -0.26558015
    -0.26558015]
   [-0.03380315 -0.03380388 -0.1913062  ... -0.24564578 -0.26558015
    -0.26558015]]

  [[-0.01803781 -0.01803802 -0.03217164 ... -0.0334147  -0.03375939
    -0.03375939]
   [-0.01803802 -0.01803823 -0.03217231 ... -0.03341541 -0.03376011
    -0.03376011]
   [-0.03217164 -0.03217231 -0.14864465 ... -0.17949666 -0.18991284
    -0.18991284]
   ...
   [-0.0334147  -0.03341541 -0.17949666 ... -0.22651008 -0.24335319
    -0.24335319]
   [-0.03375939 -0.03376011 -0.18991284 ... -0.24335319 -0.2629024
    -0.2629024 ]
   [-0.03375939 -0.03376011 -0.18991284 ... -0.24335319 -0.2629024
    -0.2629024 ]]

  ...

  [[-0.01698323 -0.01698341 -0.02896385 ... -0.0299675  -0.03024445
    -0.03024445]
   [-0.01698341 -0.0169836  -0.02896438 ... -0.02996807 -0.03024503
    -0.03024503]
   [-0.02896385 -0.02896438 -0.09832857 ... -0.11094267 -0.11483557
    -0.11483557]
   ...
   [-0.0299675  -0.02996807 -0.11094267 ... -0.12726946 -0.13241905
    -0.13241905]
   [-0.03024445 -0.03024503 -0.11483557 ... -0.13241905 -0.13800293
    -0.13800293]
   [-0.03024445 -0.03024503 -0.11483557 ... -0.13241905 -0.13800293
    -0.13800293]]

  [[-0.01698323 -0.01698341 -0.02896385 ... -0.0299675  -0.03024445
    -0.03024445]
   [-0.01698341 -0.0169836  -0.02896438 ... -0.02996807 -0.03024503
    -0.03024503]
   [-0.02896385 -0.02896438 -0.09832857 ... -0.11094267 -0.11483557
    -0.11483557]
   ...
   [-0.0299675  -0.02996807 -0.11094267 ... -0.12726946 -0.13241905
    -0.13241905]
   [-0.03024445 -0.03024503 -0.11483557 ... -0.13241905 -0.13800293
    -0.13800293]
   [-0.03024445 -0.03024503 -0.11483557 ... -0.13241905 -0.13800293
    -0.13800293]]

  [[-0.01676107 -0.01676125 -0.0283236  ... -0.02928264 -0.02954701
    -0.02954701]
   [-0.01676125 -0.01676143 -0.02832411 ... -0.02928318 -0.02954757
    -0.02954757]
   [-0.0283236  -0.02832411 -0.0913206  ... -0.10210216 -0.10539016
    -0.10539016]
   ...
   [-0.02928264 -0.02928318 -0.10210216 ... -0.11577032 -0.12001586
    -0.12001586]
   [-0.02954701 -0.02954757 -0.10539016 ... -0.12001586 -0.12458465
    -0.12458465]
   [-0.02954701 -0.02954757 -0.10539016 ... -0.12001586 -0.12458465
    -0.12458465]]]


 [[[-0.01831295 -0.01831316 -0.03305747 ... -0.03437131 -0.03473613
    -0.03473613]
   [-0.01831316 -0.01831338 -0.03305816 ... -0.03437206 -0.0347369
    -0.0347369 ]
   [-0.03305747 -0.03305816 -0.16964868 ... -0.21104994 -0.22559847
    -0.22559847]
   ...
   [-0.03437131 -0.03437206 -0.21104994 ... -0.2791818  -0.30521913
    -0.30521913]
   [-0.03473613 -0.0347369  -0.22559847 ... -0.30521913 -0.33661264
    -0.33661264]
   [-0.03473613 -0.0347369  -0.22559847 ... -0.30521913 -0.33661264
    -0.33661264]]

  [[-0.01803781 -0.01803802 -0.03217164 ... -0.0334147  -0.03375939
    -0.03375939]
   [-0.01803802 -0.01803823 -0.03217231 ... -0.03341541 -0.03376011
    -0.03376011]
   [-0.03217164 -0.03217231 -0.14864465 ... -0.17949666 -0.18991284
    -0.18991284]
   ...
   [-0.0334147  -0.03341541 -0.17949666 ... -0.22651008 -0.24335319
    -0.24335319]
   [-0.03375939 -0.03376011 -0.18991284 ... -0.24335319 -0.2629024
    -0.2629024 ]
   [-0.03375939 -0.03376011 -0.18991284 ... -0.24335319 -0.2629024
    -0.2629024 ]]

  [[-0.01802534 -0.01802555 -0.032132   ... -0.03337193 -0.03371573
    -0.03371573]
   [-0.01802555 -0.01802576 -0.03213266 ... -0.03337264 -0.03371646
    -0.03371646]
   [-0.032132   -0.03213266 -0.14780207 ... -0.17826947 -0.18853963
    -0.18853963]
   ...
   [-0.03337193 -0.03337264 -0.17826947 ... -0.22455934 -0.24110299
    -0.24110299]
   [-0.03371573 -0.03371646 -0.18853963 ... -0.24110299 -0.2602781
    -0.2602781 ]
   [-0.03371573 -0.03371646 -0.18853963 ... -0.24110299 -0.2602781
    -0.2602781 ]]

  ...

  [[-0.01697217 -0.01697236 -0.02893171 ... -0.0299331  -0.03020941
    -0.03020941]
   [-0.01697236 -0.01697254 -0.02893224 ... -0.02993367 -0.03020999
    -0.03020999]
   [-0.02893171 -0.02893224 -0.09795917 ... -0.11047264 -0.11433204
    -0.11433204]
   ...
   [-0.0299331  -0.02993367 -0.11047264 ... -0.12665128 -0.13174996
    -0.13174996]
   [-0.03020941 -0.03020999 -0.11433204 ... -0.13174996 -0.13727638
    -0.13727638]
   [-0.03020941 -0.03020999 -0.11433204 ... -0.13174996 -0.13727638
    -0.13727638]]

  [[-0.01697217 -0.01697236 -0.02893171 ... -0.0299331  -0.03020941
    -0.03020941]
   [-0.01697236 -0.01697254 -0.02893224 ... -0.02993367 -0.03020999
    -0.03020999]
   [-0.02893171 -0.02893224 -0.09795917 ... -0.11047264 -0.11433204
    -0.11433204]
   ...
   [-0.0299331  -0.02993367 -0.11047264 ... -0.12665128 -0.13174996
    -0.13174996]
   [-0.03020941 -0.03020999 -0.11433204 ... -0.13174996 -0.13727638
    -0.13727638]
   [-0.03020941 -0.03020999 -0.11433204 ... -0.13174996 -0.13727638
    -0.13727638]]

  [[-0.0167503  -0.01675048 -0.02829286 ... -0.02924979 -0.02951357
    -0.02951357]
   [-0.01675048 -0.01675066 -0.02829338 ... -0.02925033 -0.02951412
    -0.02951412]
   [-0.02829286 -0.02829338 -0.09100189 ... -0.10170391 -0.10496591
    -0.10496591]
   ...
   [-0.02924979 -0.02925033 -0.10170391 ... -0.11525858 -0.11946599
    -0.11946599]
   [-0.02951357 -0.02951412 -0.10496591 ... -0.11946599 -0.12399222
    -0.12399222]
   [-0.02951357 -0.02951412 -0.10496591 ... -0.11946599 -0.12399222
    -0.12399222]]]


 ...


 [[[-0.01722691 -0.0172271  -0.02967986 ... -0.03073465 -0.03102603
    -0.03102603]
   [-0.0172271  -0.01722729 -0.02968042 ... -0.03073526 -0.03102664
    -0.03102664]
   [-0.02967986 -0.02968042 -0.10710004 ... -0.12223826 -0.12698116
    -0.12698116]
   ...
   [-0.03073465 -0.03073526 -0.12223826 ... -0.1423604  -0.14883467
    -0.14883467]
   [-0.03102603 -0.03102664 -0.12698116 ... -0.14883467 -0.15592587
    -0.15592587]
   [-0.03102603 -0.03102664 -0.12698116 ... -0.14883467 -0.15592587
    -0.15592587]]

  [[-0.01698323 -0.01698341 -0.02896385 ... -0.0299675  -0.03024445
    -0.03024445]
   [-0.01698341 -0.0169836  -0.02896438 ... -0.02996807 -0.03024503
    -0.03024503]
   [-0.02896385 -0.02896438 -0.09832857 ... -0.11094267 -0.11483557
    -0.11483557]
   ...
   [-0.0299675  -0.02996807 -0.11094267 ... -0.12726946 -0.13241905
    -0.13241905]
   [-0.03024445 -0.03024503 -0.11483557 ... -0.13241905 -0.13800293
    -0.13800293]
   [-0.03024445 -0.03024503 -0.11483557 ... -0.13241905 -0.13800293
    -0.13800293]]

  [[-0.01697217 -0.01697236 -0.02893171 ... -0.0299331  -0.03020941
    -0.03020941]
   [-0.01697236 -0.01697254 -0.02893224 ... -0.02993367 -0.03020999
    -0.03020999]
   [-0.02893171 -0.02893224 -0.09795917 ... -0.11047264 -0.11433204
    -0.11433204]
   ...
   [-0.0299331  -0.02993367 -0.11047264 ... -0.12665128 -0.13174996
    -0.13174996]
   [-0.03020941 -0.03020999 -0.11433204 ... -0.13174996 -0.13727638
    -0.13727638]
   [-0.03020941 -0.03020999 -0.11433204 ... -0.13174996 -0.13727638
    -0.13727638]]

  ...

  [[-0.01603528 -0.01603544 -0.02631116 ... -0.02713677 -0.02736367
    -0.02736367]
   [-0.01603544 -0.01603561 -0.0263116  ... -0.02713724 -0.02736415
    -0.02736415]
   [-0.02631116 -0.0263116  -0.07325543 ... -0.08003492 -0.08204129
    -0.08204129]
   ...
   [-0.02713677 -0.02713724 -0.08003492 ... -0.08819722 -0.09063993
    -0.09063993]
   [-0.02736367 -0.02736415 -0.08204129 ... -0.09063993 -0.0932218
    -0.0932218 ]
   [-0.02736367 -0.02736415 -0.08204129 ... -0.09063993 -0.0932218
    -0.0932218 ]]

  [[-0.01603528 -0.01603544 -0.02631116 ... -0.02713677 -0.02736367
    -0.02736367]
   [-0.01603544 -0.01603561 -0.0263116  ... -0.02713724 -0.02736415
    -0.02736415]
   [-0.02631116 -0.0263116  -0.07325543 ... -0.08003492 -0.08204129
    -0.08204129]
   ...
   [-0.02713677 -0.02713724 -0.08003492 ... -0.08819722 -0.09063993
    -0.09063993]
   [-0.02736367 -0.02736415 -0.08204129 ... -0.09063993 -0.0932218
    -0.0932218 ]
   [-0.02736367 -0.02736415 -0.08204129 ... -0.09063993 -0.0932218
    -0.0932218 ]]

  [[-0.01583708 -0.01583724 -0.02578175 ... -0.02657397 -0.02679151
    -0.02679151]
   [-0.01583724 -0.0158374  -0.02578217 ... -0.02657442 -0.02679197
    -0.02679197]
   [-0.02578175 -0.02578217 -0.06929376 ... -0.0753296  -0.07710437
    -0.07710437]
   ...
   [-0.02657397 -0.02657442 -0.0753296  ... -0.08251728 -0.08465169
    -0.08465169]
   [-0.02679151 -0.02679197 -0.07710437 ... -0.08465169 -0.08689945
    -0.08689945]
   [-0.02679151 -0.02679197 -0.07710437 ... -0.08465169 -0.08689945
    -0.08689945]]]


 [[[-0.01722691 -0.0172271  -0.02967986 ... -0.03073465 -0.03102603
    -0.03102603]
   [-0.0172271  -0.01722729 -0.02968042 ... -0.03073526 -0.03102664
    -0.03102664]
   [-0.02967986 -0.02968042 -0.10710004 ... -0.12223826 -0.12698116
    -0.12698116]
   ...
   [-0.03073465 -0.03073526 -0.12223826 ... -0.1423604  -0.14883467
    -0.14883467]
   [-0.03102603 -0.03102664 -0.12698116 ... -0.14883467 -0.15592587
    -0.15592587]
   [-0.03102603 -0.03102664 -0.12698116 ... -0.14883467 -0.15592587
    -0.15592587]]

  [[-0.01698323 -0.01698341 -0.02896385 ... -0.0299675  -0.03024445
    -0.03024445]
   [-0.01698341 -0.0169836  -0.02896438 ... -0.02996807 -0.03024503
    -0.03024503]
   [-0.02896385 -0.02896438 -0.09832857 ... -0.11094267 -0.11483557
    -0.11483557]
   ...
   [-0.0299675  -0.02996807 -0.11094267 ... -0.12726946 -0.13241905
    -0.13241905]
   [-0.03024445 -0.03024503 -0.11483557 ... -0.13241905 -0.13800293
    -0.13800293]
   [-0.03024445 -0.03024503 -0.11483557 ... -0.13241905 -0.13800293
    -0.13800293]]

  [[-0.01697217 -0.01697236 -0.02893171 ... -0.0299331  -0.03020941
    -0.03020941]
   [-0.01697236 -0.01697254 -0.02893224 ... -0.02993367 -0.03020999
    -0.03020999]
   [-0.02893171 -0.02893224 -0.09795917 ... -0.11047264 -0.11433204
    -0.11433204]
   ...
   [-0.0299331  -0.02993367 -0.11047264 ... -0.12665128 -0.13174996
    -0.13174996]
   [-0.03020941 -0.03020999 -0.11433204 ... -0.13174996 -0.13727638
    -0.13727638]
   [-0.03020941 -0.03020999 -0.11433204 ... -0.13174996 -0.13727638
    -0.13727638]]

  ...

  [[-0.01603528 -0.01603544 -0.02631116 ... -0.02713677 -0.02736367
    -0.02736367]
   [-0.01603544 -0.01603561 -0.0263116  ... -0.02713724 -0.02736415
    -0.02736415]
   [-0.02631116 -0.0263116  -0.07325543 ... -0.08003492 -0.08204129
    -0.08204129]
   ...
   [-0.02713677 -0.02713724 -0.08003492 ... -0.08819722 -0.09063993
    -0.09063993]
   [-0.02736367 -0.02736415 -0.08204129 ... -0.09063993 -0.0932218
    -0.0932218 ]
   [-0.02736367 -0.02736415 -0.08204129 ... -0.09063993 -0.0932218
    -0.0932218 ]]

  [[-0.01603528 -0.01603544 -0.02631116 ... -0.02713677 -0.02736367
    -0.02736367]
   [-0.01603544 -0.01603561 -0.0263116  ... -0.02713724 -0.02736415
    -0.02736415]
   [-0.02631116 -0.0263116  -0.07325543 ... -0.08003492 -0.08204129
    -0.08204129]
   ...
   [-0.02713677 -0.02713724 -0.08003492 ... -0.08819722 -0.09063993
    -0.09063993]
   [-0.02736367 -0.02736415 -0.08204129 ... -0.09063993 -0.0932218
    -0.0932218 ]
   [-0.02736367 -0.02736415 -0.08204129 ... -0.09063993 -0.0932218
    -0.0932218 ]]

  [[-0.01583708 -0.01583724 -0.02578175 ... -0.02657397 -0.02679151
    -0.02679151]
   [-0.01583724 -0.0158374  -0.02578217 ... -0.02657442 -0.02679197
    -0.02679197]
   [-0.02578175 -0.02578217 -0.06929376 ... -0.0753296  -0.07710437
    -0.07710437]
   ...
   [-0.02657397 -0.02657442 -0.0753296  ... -0.08251728 -0.08465169
    -0.08465169]
   [-0.02679151 -0.02679197 -0.07710437 ... -0.08465169 -0.08689945
    -0.08689945]
   [-0.02679151 -0.02679197 -0.07710437 ... -0.08465169 -0.08689945
    -0.08689945]]]


 [[[-0.01699838 -0.01699856 -0.02900793 ... -0.0300147  -0.03029252
    -0.03029252]
   [-0.01699856 -0.01699875 -0.02900847 ... -0.03001527 -0.03029311
    -0.03029311]
   [-0.02900793 -0.02900847 -0.09883852 ... -0.11159228 -0.11553171
    -0.11553171]
   ...
   [-0.0300147  -0.03001527 -0.11159228 ... -0.12812507 -0.13334555
    -0.13334555]
   [-0.03029252 -0.03029311 -0.11553171 ... -0.13334555 -0.13900952
    -0.13900952]
   [-0.03029252 -0.03029311 -0.11553171 ... -0.13334555 -0.13900952
    -0.13900952]]

  [[-0.01676107 -0.01676125 -0.0283236  ... -0.02928264 -0.02954701
    -0.02954701]
   [-0.01676125 -0.01676143 -0.02832411 ... -0.02928318 -0.02954757
    -0.02954757]
   [-0.0283236  -0.02832411 -0.0913206  ... -0.10210216 -0.10539016
    -0.10539016]
   ...
   [-0.02928264 -0.02928318 -0.10210216 ... -0.11577032 -0.12001586
    -0.12001586]
   [-0.02954701 -0.02954757 -0.10539016 ... -0.12001586 -0.12458465
    -0.12458465]
   [-0.02954701 -0.02954757 -0.10539016 ... -0.12001586 -0.12458465
    -0.12458465]]

  [[-0.0167503  -0.01675048 -0.02829286 ... -0.02924979 -0.02951357
    -0.02951357]
   [-0.01675048 -0.01675066 -0.02829338 ... -0.02925033 -0.02951412
    -0.02951412]
   [-0.02829286 -0.02829338 -0.09100189 ... -0.10170391 -0.10496591
    -0.10496591]
   ...
   [-0.02924979 -0.02925033 -0.10170391 ... -0.11525858 -0.11946599
    -0.11946599]
   [-0.02951357 -0.02951412 -0.10496591 ... -0.11946599 -0.12399222
    -0.12399222]
   [-0.02951357 -0.02951412 -0.10496591 ... -0.11946599 -0.12399222
    -0.12399222]]

  ...

  [[-0.01583708 -0.01583724 -0.02578175 ... -0.02657397 -0.02679151
    -0.02679151]
   [-0.01583724 -0.0158374  -0.02578217 ... -0.02657442 -0.02679197
    -0.02679197]
   [-0.02578175 -0.02578217 -0.06929376 ... -0.0753296  -0.07710437
    -0.07710437]
   ...
   [-0.02657397 -0.02657442 -0.0753296  ... -0.08251728 -0.08465169
    -0.08465169]
   [-0.02679151 -0.02679197 -0.07710437 ... -0.08465169 -0.08689945
    -0.08689945]
   [-0.02679151 -0.02679197 -0.07710437 ... -0.08465169 -0.08689945
    -0.08689945]]

  [[-0.01583708 -0.01583724 -0.02578175 ... -0.02657397 -0.02679151
    -0.02679151]
   [-0.01583724 -0.0158374  -0.02578217 ... -0.02657442 -0.02679197
    -0.02679197]
   [-0.02578175 -0.02578217 -0.06929376 ... -0.0753296  -0.07710437
    -0.07710437]
   ...
   [-0.02657397 -0.02657442 -0.0753296  ... -0.08251728 -0.08465169
    -0.08465169]
   [-0.02679151 -0.02679197 -0.07710437 ... -0.08465169 -0.08689945
    -0.08689945]
   [-0.02679151 -0.02679197 -0.07710437 ... -0.08465169 -0.08689945
    -0.08689945]]

  [[-0.01564372 -0.01564388 -0.02527322 ... -0.02603403 -0.02624279
    -0.02624279]
   [-0.01564388 -0.01564404 -0.02527362 ... -0.02603447 -0.02624323
    -0.02624323]
   [-0.02527322 -0.02527362 -0.06573861 ... -0.07114682 -0.0727279
    -0.0727279 ]
   ...
   [-0.02603403 -0.02603447 -0.07114682 ... -0.07752466 -0.07940566
    -0.07940566]
   [-0.02624279 -0.02624323 -0.0727279  ... -0.07940566 -0.0813802
    -0.0813802 ]
   [-0.02624279 -0.02624323 -0.0727279  ... -0.07940566 -0.0813802
    -0.0813802 ]]]] (19, 19, 9, 9)
hf energy: -198.59442894136666
nuclear repulsion: 38.96668553138181
(28, 28, 28, 28)
initial energy: -237.56111447274859
    ==>  CCD  amplitude equations <==

     Iter              Corr. Energy                 |dE|    

        0      -0.363814914536       0.363814914536 

        1      -0.366461878462       0.002646963926 

        2      -0.370159811174       0.003697932712 

        3      -0.370778035038       0.000618223864 

        4      -0.370998890614       0.000220855576 

        5      -0.371120980178       0.000122089564 

        6      -0.371112243433       0.000008736745 

        7      -0.371113090311       0.000000846878 

        8      -0.371113400911       0.000000310600 

        9      -0.371113367019       0.000000033892 

       10      -0.371113360964       0.000000006056 

       11      -0.371113361785       0.000000000821 

       12      -0.371113361744       0.000000000041 

       13      -0.371113361742       0.000000000002 

       14      -0.371113361743       0.000000000001 





CCD  correlation contribution: -0.3711133617425162
CCD  energy: -198.96554230310917




Final energy: -198.96554230310917
Final energy: -198.96554230310917


******** <class 'pyscf.scf.uhf.UHF'> ********
method = UHF
initial guess = minao
damping factor = 0
level_shift factor = 0
DIIS = <class 'pyscf.scf.diis.CDIIS'>
diis_start_cycle = 1
diis_space = 8
SCF conv_tol = 1e-09
SCF conv_tol_grad = 1e-10
SCF max_cycles = 50
direct_scf = True
direct_scf_tol = 1e-13
chkfile to save SCF result = /blue/bartlett/z.windom/MOLSSI_develop/DEVELOP_CC_T2/UT2/UT2/tests/tmp5_r1zlgi
max_memory 4000 MB (current use 79 MB)
number electrons alpha = 9  beta = 9
E1 = -355.6322418822554  Ecoul = 117.10959540365296
init E= -199.555960947221
cond(S) = 118.46506244165407
    CPU time for initialize scf      3.25 sec, wall time      0.13 sec
  alpha nocc = 9  HOMO = -0.383973659158007  LUMO = 0.272041798784421
  beta  nocc = 9  HOMO = -0.383037449252212  LUMO = 0.261979204319064
  alpha mo_energy =
[-26.46269158 -26.46000732  -2.28221275  -1.37658731  -0.87781105
  -0.87216451  -0.87216451  -0.38397366  -0.38397366   0.2720418
   1.24093964   1.3646701    1.3646701    1.44841776   1.48993713
   1.48993713   1.7330709    2.49444034   3.31249188   3.31249188
   3.72205618   3.72205618   4.0104306    4.03891824   4.03891824
   4.79457347   4.79457347   5.57118535]
  beta  mo_energy =
[-26.46402066 -26.46070572  -2.34512442  -1.36471927  -0.89044952
  -0.86815109  -0.86815109  -0.38303745  -0.38303745   0.2619792
   1.23822752   1.36424112   1.36424112   1.44832706   1.49098847
   1.49098847   1.72986755   2.49420291   3.30437083   3.30437083
   3.72187758   3.72187758   4.00302349   4.03913743   4.03913743
   4.79205066   4.79205066   5.56873116]
multiplicity <S^2> = 9.887139e-05  2S+1 = 1.0001977
E1 = -353.9069102182477  Ecoul = 116.38127517517364
cycle= 1 E= -198.558949511692  delta_E= 0.997  |g|= 0.371  |ddm|= 1.21
    CPU time for cycle= 1      0.50 sec, wall time      0.02 sec
  alpha nocc = 9  HOMO = -0.611703765481011  LUMO = 0.426097466773217
  beta  nocc = 9  HOMO = -0.612311375374293  LUMO = 0.425616217206736
  alpha mo_energy =
[-26.49239429 -26.49176323  -2.10610343  -1.41811803  -0.96613937
  -0.96613937  -0.92662709  -0.61170377  -0.61170377   0.42609747
   1.28553769   1.31526804   1.31526804   1.4401317    1.46518991
   1.46518991   1.68061419   2.46856597   3.22911714   3.22911714
   3.6724491    3.6724491    3.93896888   3.98876208   3.98876208
   4.74445236   4.74445236   5.5269644 ]
  beta  mo_energy =
[-26.4925991  -26.49197068  -2.10876834  -1.41836314  -0.96738666
  -0.96738666  -0.92356889  -0.61231138  -0.61231138   0.42561622
   1.28683806   1.31489414   1.31489414   1.44075294   1.46490932
   1.46490932   1.68073893   2.4683482    3.22905693   3.22905693
   3.67207917   3.67207917   3.93883572   3.98843883   3.98843883
   4.74462799   4.74462799   5.52726628]
multiplicity <S^2> = 1.4241307e-05  2S+1 = 1.0000285
E1 = -355.51900556637736  Ecoul = 117.960614618665
cycle= 2 E= -198.591705416331  delta_E= -0.0328  |g|= 0.104  |ddm|= 0.224
    CPU time for cycle= 2      0.49 sec, wall time      0.02 sec
  alpha nocc = 9  HOMO = -0.560165775122805  LUMO = 0.48975416735885
  beta  nocc = 9  HOMO = -0.560609983395154  LUMO = 0.489148912203442
  alpha mo_energy =
[-26.3646159  -26.36398346  -2.02096007  -1.37786414  -0.90753454
  -0.90753454  -0.87004841  -0.56016578  -0.56016578   0.48975417
   1.31870985   1.35722233   1.35722233   1.46863839   1.49609439
   1.49609439   1.73003573   2.51025487   3.29414537   3.29414537
   3.73310716   3.73310716   4.00509047   4.04701501   4.04701501
   4.80286969   4.80286969   5.58365604]
  beta  mo_energy =
[-26.36479201 -26.36415932  -2.02222059  -1.37783623  -0.90813906
  -0.90813906  -0.86843397  -0.56060998  -0.56060998   0.48914891
   1.31937588   1.35695953   1.35695953   1.46898178   1.49587575
   1.49587575   1.73007206   2.51012335   3.29418358   3.29418358
   3.73288883   3.73288883   4.00500738   4.04680214   4.04680214
   4.80292381   4.80292381   5.58377502]
multiplicity <S^2> = 4.0606012e-06  2S+1 = 1.0000081
E1 = -354.95890377411854  Ecoul = 117.39791329221774
cycle= 3 E= -198.594304950519  delta_E= -0.0026  |g|= 0.0176  |ddm|= 0.0587
    CPU time for cycle= 3      0.58 sec, wall time      0.03 sec
  alpha nocc = 9  HOMO = -0.572101267814703  LUMO = 0.477828186749264
  beta  nocc = 9  HOMO = -0.572370680238813  LUMO = 0.477484957141987
  alpha mo_energy =
[-26.39489109 -26.39425741  -2.03432788  -1.38977697  -0.91826059
  -0.91826059  -0.87944912  -0.57210127  -0.57210127   0.47782819
   1.31029299   1.34949304   1.34949304   1.46189966   1.4894694
   1.4894694    1.72218491   2.50273056   3.28272612   3.28272612
   3.72236005   3.72236005   3.99210682   4.03606042   4.03606042
   4.79095398   4.79095398   5.57128593]
  beta  mo_energy =
[-26.39499337 -26.39435916  -2.03482407  -1.38974484  -0.91852665
  -0.91852665  -0.87876132  -0.57237068  -0.57237068   0.47748496
   1.31053641   1.34935636   1.34935636   1.46202147   1.48934537
   1.48934537   1.72220458   2.50268375   3.28277763   3.28277763
   3.72225281   3.72225281   3.99207697   4.03594716   4.03594716
   4.79096385   4.79096385   5.57132108]
multiplicity <S^2> = 7.7745623e-07  2S+1 = 1.0000016
E1 = -355.06884781798806  Ecoul = 117.50774354335357
cycle= 4 E= -198.594418743253  delta_E= -0.000114  |g|= 0.00532  |ddm|= 0.0134
    CPU time for cycle= 4      0.50 sec, wall time      0.02 sec
  alpha nocc = 9  HOMO = -0.569659028369323  LUMO = 0.480173488936916
  beta  nocc = 9  HOMO = -0.569784758533105  LUMO = 0.480035214589683
  alpha mo_energy =
[-26.3873655  -26.38672659  -2.0315448   -1.38712107  -0.91573288
  -0.91573288  -0.87549836  -0.56965903  -0.56965903   0.48017349
   1.31291091   1.3513086    1.3513086    1.46378342   1.49112569
   1.49112569   1.72428846   2.50457761   3.28566951   3.28566951
   3.72516189   3.72516189   3.99518024   4.03885236   4.03885236
   4.79383778   4.79383778   5.57428695]
  beta  mo_energy =
[-26.38741034 -26.38677121  -2.03171221  -1.38711407  -0.91583592
  -0.91583592  -0.87526686  -0.56978476  -0.56978476   0.48003521
   1.31298424   1.35124774   1.35124774   1.46381759   1.49106897
   1.49106897   1.72429592   2.50456388   3.28569507   3.28569507
   3.72511853   3.72511853   3.99517041   4.03880446   4.03880446
   4.79383612   4.79383612   5.57429279]
multiplicity <S^2> = 1.0387578e-07  2S+1 = 1.0000002
E1 = -355.04334870356047  Ecoul = 117.48223434577137
cycle= 5 E= -198.594428826407  delta_E= -1.01e-05  |g|= 0.000444  |ddm|= 0.00414
    CPU time for cycle= 5      0.49 sec, wall time      0.02 sec
  alpha nocc = 9  HOMO = -0.569723197176467  LUMO = 0.480019505641467
  beta  nocc = 9  HOMO = -0.56976478262721  LUMO = 0.479983258252655
  alpha mo_energy =
[-26.38743903 -26.38680018  -2.03159708  -1.38717184  -0.91575998
  -0.91575998  -0.87533526  -0.5697232   -0.5697232    0.48001951
   1.31291357   1.35128747   1.35128747   1.46378774   1.49108577
   1.49108577   1.72427738   2.50454631   3.28567089   3.28567089
   3.72514647   3.72514647   3.99514775   4.03882913   4.03882913
   4.79380611   4.79380611   5.57425328]
  beta  mo_energy =
[-26.38745377 -26.38681489  -2.03164992  -1.38717686  -0.91579499
  -0.91579499  -0.87527444  -0.56976478  -0.56976478   0.47998326
   1.31293353   1.35126621   1.35126621   1.46379704   1.49106704
   1.49106704   1.72427919   2.5045423    3.28567549   3.28567549
   3.72513278   3.72513278   3.99514242   4.03881418   4.03881418
   4.79380423   4.79380423   5.57425335]
multiplicity <S^2> = 9.2864951e-09  2S+1 = 1
E1 = -355.04344490729085  Ecoul = 117.48233043987838
cycle= 6 E= -198.594428936031  delta_E= -1.1e-07  |g|= 8.2e-05  |ddm|= 0.000377
    CPU time for cycle= 6      0.51 sec, wall time      0.02 sec
  alpha nocc = 9  HOMO = -0.569738878819462  LUMO = 0.480013053439871
  beta  nocc = 9  HOMO = -0.569747638879331  LUMO = 0.480006513210007
  alpha mo_energy =
[-26.38743917 -26.38680031  -2.03161893  -1.38717905  -0.91577264
  -0.91577264  -0.87530605  -0.56973888  -0.56973888   0.48001305
   1.31292817   1.35128249   1.35128249   1.46379792   1.491081
   1.491081     1.72428214   2.50454737   3.28567784   3.28567784
   3.72514517   3.72514517   3.99515212   4.0388273    4.0388273
   4.79381058   4.79381058   5.57425851]
  beta  mo_energy =
[-26.38744269 -26.38680381  -2.03162803  -1.3871813   -0.91577984
  -0.91577984  -0.87529834  -0.56974764  -0.56974764   0.48000651
   1.31292995   1.35127777   1.35127777   1.463799     1.49107712
   1.49107712   1.72428218   2.50454666   3.28567811   3.28567811
   3.7251425    3.7251425    3.99515022   4.03882438   4.03882438
   4.79380961   4.79380961   5.57425781]
multiplicity <S^2> = 2.9570835e-10  2S+1 = 1
E1 = -355.0434503817611  Ecoul = 117.48233590920071
cycle= 7 E= -198.594428941179  delta_E= -5.15e-09  |g|= 1.56e-05  |ddm|= 9.66e-05
    CPU time for cycle= 7      0.49 sec, wall time      0.02 sec
  alpha nocc = 9  HOMO = -0.569742230504143  LUMO = 0.480008632466214
  beta  nocc = 9  HOMO = -0.569743472063004  LUMO = 0.480008438782978
  alpha mo_energy =
[-26.38744133 -26.38680246  -2.03162289  -1.38717668  -0.91577604
  -0.91577604  -0.87530304  -0.56974223  -0.56974223   0.48000863
   1.31292815   1.35127949   1.35127949   1.46379728   1.49107871
   1.49107871   1.72428117   2.50454657   3.28567686   3.28567686
   3.72514289   3.72514289   3.99514993   4.03882502   4.03882502
   4.79380935   4.79380935   5.57425751]
  beta  mo_energy =
[-26.38744187 -26.386803    -2.03162346  -1.38717773  -0.91577698
  -0.91577698  -0.87530372  -0.56974347  -0.56974347   0.48000844
   1.31292769   1.35127878   1.35127878   1.46379714   1.49107818
   1.49107818   1.72428104   2.50454653   3.28567668   3.28567668
   3.72514259   3.72514259   3.99514956   4.03882469   4.03882469
   4.79380904   4.79380904   5.57425721]
multiplicity <S^2> = 4.5048409e-12  2S+1 = 1
E1 = -355.0434499473283  Ecoul = 117.48233547458273
cycle= 8 E= -198.594428941364  delta_E= -1.85e-10  |g|= 2.02e-06  |ddm|= 1.98e-05
    CPU time for cycle= 8      0.50 sec, wall time      0.02 sec
  alpha nocc = 9  HOMO = -0.569742888446426  LUMO = 0.480008665741524
  beta  nocc = 9  HOMO = -0.569743242160994  LUMO = 0.480008624749546
  alpha mo_energy =
[-26.38744188 -26.38680301  -2.0316234   -1.38717743  -0.9157766
  -0.9157766   -0.87530376  -0.56974289  -0.56974289   0.48000867
   1.31292788   1.3512792    1.3512792    1.46379705   1.49107851
   1.49107851   1.72428111   2.50454651   3.28567666   3.28567666
   3.72514262   3.72514262   3.99514975   4.03882474   4.03882474
   4.79380912   4.79380912   5.57425728]
  beta  mo_energy =
[-26.38744203 -26.38680317  -2.03162351  -1.38717772  -0.91577686
  -0.91577686  -0.87530405  -0.56974324  -0.56974324   0.48000862
   1.3129277    1.35127899   1.35127899   1.463797     1.49107836
   1.49107836   1.72428107   2.5045465    3.28567659   3.28567659
   3.72514254   3.72514254   3.99514963   4.03882466   4.03882466
   4.79380902   4.79380902   5.57425717]
multiplicity <S^2> = 4.1211479e-13  2S+1 = 1
E1 = -355.04345017776836  Ecoul = 117.48233570502006
cycle= 9 E= -198.594428941366  delta_E= -2.7e-12  |g|= 5.55e-07  |ddm|= 2.35e-06
    CPU time for cycle= 9      0.50 sec, wall time      0.02 sec
  alpha nocc = 9  HOMO = -0.569743033111326  LUMO = 0.480008588990228
  beta  nocc = 9  HOMO = -0.569743084022705  LUMO = 0.480008588183554
  alpha mo_energy =
[-26.38744197 -26.3868031   -2.03162343  -1.38717752  -0.91577669
  -0.91577669  -0.87530386  -0.56974303  -0.56974303   0.48000859
   1.31292777   1.3512791    1.3512791    1.46379701   1.49107843
   1.49107843   1.72428107   2.50454649   3.28567662   3.28567662
   3.72514257   3.72514257   3.99514968   4.03882469   4.03882469
   4.79380906   4.79380906   5.57425722]
  beta  mo_energy =
[-26.38744199 -26.38680312  -2.03162345  -1.38717756  -0.91577673
  -0.91577673  -0.87530391  -0.56974308  -0.56974308   0.48000859
   1.31292775   1.35127907   1.35127907   1.463797     1.49107841
   1.49107841   1.72428106   2.50454649   3.28567661   3.28567661
   3.72514256   3.72514256   3.99514966   4.03882468   4.03882468
   4.79380905   4.79380905   5.5742572 ]
multiplicity <S^2> = 1.7763568e-15  2S+1 = 1
E1 = -355.04345018549947  Ecoul = 117.48233571275088
cycle= 10 E= -198.594428941367  delta_E= -2.84e-13  |g|= 9.12e-08  |ddm|= 7.96e-07
    CPU time for cycle= 10      0.50 sec, wall time      0.02 sec
  alpha nocc = 9  HOMO = -0.569743049567794  LUMO = 0.480008598047896
  beta  nocc = 9  HOMO = -0.569743050863847  LUMO = 0.480008598349791
  alpha mo_energy =
[-26.38744195 -26.38680309  -2.03162343  -1.38717753  -0.91577671
  -0.91577671  -0.87530387  -0.56974305  -0.56974305   0.4800086
   1.31292777   1.35127909   1.35127909   1.46379702   1.49107842
   1.49107842   1.72428107   2.5045465    3.28567663   3.28567663
   3.72514258   3.72514258   3.99514968   4.0388247    4.0388247
   4.79380906   4.79380906   5.57425722]
  beta  mo_energy =
[-26.38744195 -26.38680309  -2.03162343  -1.38717754  -0.91577671
  -0.91577671  -0.87530387  -0.56974305  -0.56974305   0.4800086
   1.31292777   1.35127909   1.35127909   1.46379702   1.49107842
   1.49107842   1.72428107   2.5045465    3.28567663   3.28567663
   3.72514258   3.72514258   3.99514968   4.0388247    4.0388247
   4.79380906   4.79380906   5.57425722]
multiplicity <S^2> = 5.3290705e-15  2S+1 = 1
E1 = -355.04345016114723  Ecoul = 117.48233568839865
cycle= 11 E= -198.594428941367  delta_E=    0  |g|= 4.87e-09  |ddm|= 1.36e-07
    CPU time for cycle= 11      0.50 sec, wall time      0.02 sec
Linear dependence found in DIIS error vectors.
  alpha nocc = 9  HOMO = -0.56974305044525  LUMO = 0.480008597910054
  beta  nocc = 9  HOMO = -0.569743050782479  LUMO = 0.480008598053245
  alpha mo_energy =
[-26.38744195 -26.38680309  -2.03162343  -1.38717753  -0.91577671
  -0.91577671  -0.87530387  -0.56974305  -0.56974305   0.4800086
   1.31292777   1.35127909   1.35127909   1.46379702   1.49107842
   1.49107842   1.72428107   2.5045465    3.28567663   3.28567663
   3.72514258   3.72514258   3.99514968   4.0388247    4.0388247
   4.79380906   4.79380906   5.57425722]
  beta  mo_energy =
[-26.38744195 -26.38680309  -2.03162343  -1.38717754  -0.91577671
  -0.91577671  -0.87530387  -0.56974305  -0.56974305   0.4800086
   1.31292777   1.35127909   1.35127909   1.46379702   1.49107842
   1.49107842   1.72428107   2.5045465    3.28567663   3.28567663
   3.72514258   3.72514258   3.99514968   4.0388247    4.0388247
   4.79380906   4.79380906   5.57425722]
multiplicity <S^2> = 7.1054274e-15  2S+1 = 1
E1 = -355.04345016476987  Ecoul = 117.48233569202108
cycle= 12 E= -198.594428941367  delta_E= -1.99e-13  |g|= 2.24e-09  |ddm|= 3.85e-09
    CPU time for cycle= 12      0.50 sec, wall time      0.02 sec
Linear dependence found in DIIS error vectors.
  alpha nocc = 9  HOMO = -0.569743050245964  LUMO = 0.480008598280625
  beta  nocc = 9  HOMO = -0.56974305045596  LUMO = 0.48000859837343
  alpha mo_energy =
[-26.38744195 -26.38680309  -2.03162343  -1.38717753  -0.91577671
  -0.91577671  -0.87530387  -0.56974305  -0.56974305   0.4800086
   1.31292777   1.35127909   1.35127909   1.46379702   1.49107842
   1.49107842   1.72428107   2.5045465    3.28567663   3.28567663
   3.72514258   3.72514258   3.99514968   4.0388247    4.0388247
   4.79380906   4.79380906   5.57425722]
  beta  mo_energy =
[-26.38744195 -26.38680309  -2.03162343  -1.38717753  -0.91577671
  -0.91577671  -0.87530387  -0.56974305  -0.56974305   0.4800086
   1.31292777   1.35127909   1.35127909   1.46379702   1.49107842
   1.49107842   1.72428107   2.5045465    3.28567663   3.28567663
   3.72514258   3.72514258   3.99514968   4.0388247    4.0388247
   4.79380906   4.79380906   5.57425722]
multiplicity <S^2> = 1.2434498e-14  2S+1 = 1
E1 = -355.0434501619482  Ecoul = 117.48233568919969
cycle= 13 E= -198.594428941367  delta_E= 2.56e-13  |g|= 1.47e-09  |ddm|= 8.27e-10
    CPU time for cycle= 13      0.50 sec, wall time      0.02 sec
Linear dependence found in DIIS error vectors.
  alpha nocc = 9  HOMO = -0.569743050323833  LUMO = 0.480008598308594
  beta  nocc = 9  HOMO = -0.569743050478136  LUMO = 0.480008598359818
  alpha mo_energy =
[-26.38744195 -26.38680309  -2.03162343  -1.38717753  -0.91577671
  -0.91577671  -0.87530387  -0.56974305  -0.56974305   0.4800086
   1.31292777   1.35127909   1.35127909   1.46379702   1.49107842
   1.49107842   1.72428107   2.5045465    3.28567663   3.28567663
   3.72514258   3.72514258   3.99514968   4.0388247    4.0388247
   4.79380906   4.79380906   5.57425722]
  beta  mo_energy =
[-26.38744195 -26.38680309  -2.03162343  -1.38717753  -0.91577671
  -0.91577671  -0.87530387  -0.56974305  -0.56974305   0.4800086
   1.31292777   1.35127909   1.35127909   1.46379702   1.49107842
   1.49107842   1.72428107   2.5045465    3.28567663   3.28567663
   3.72514258   3.72514258   3.99514968   4.0388247    4.0388247
   4.79380906   4.79380906   5.57425722]
multiplicity <S^2> = 3.5527137e-15  2S+1 = 1
E1 = -355.0434501622941  Ecoul = 117.48233568954554
cycle= 14 E= -198.594428941367  delta_E= -2.84e-14  |g|= 1.13e-09  |ddm|= 3.61e-10
    CPU time for cycle= 14      0.49 sec, wall time      0.02 sec
Linear dependence found in DIIS error vectors.
  alpha nocc = 9  HOMO = -0.569743050395229  LUMO = 0.480008598239647
  beta  nocc = 9  HOMO = -0.569743050458485  LUMO = 0.480008598358166
  alpha mo_energy =
[-26.38744195 -26.38680309  -2.03162343  -1.38717753  -0.91577671
  -0.91577671  -0.87530387  -0.56974305  -0.56974305   0.4800086
   1.31292777   1.35127909   1.35127909   1.46379702   1.49107842
   1.49107842   1.72428107   2.5045465    3.28567663   3.28567663
   3.72514258   3.72514258   3.99514968   4.0388247    4.0388247
   4.79380906   4.79380906   5.57425722]
  beta  mo_energy =
[-26.38744195 -26.38680309  -2.03162343  -1.38717753  -0.91577671
  -0.91577671  -0.87530387  -0.56974305  -0.56974305   0.4800086
   1.31292777   1.35127909   1.35127909   1.46379702   1.49107842
   1.49107842   1.72428107   2.5045465    3.28567663   3.28567663
   3.72514258   3.72514258   3.99514968   4.0388247    4.0388247
   4.79380906   4.79380906   5.57425722]
multiplicity <S^2> = 1.7763568e-15  2S+1 = 1
E1 = -355.0434501623638  Ecoul = 117.48233568961513
cycle= 15 E= -198.594428941367  delta_E= -1.14e-13  |g|= 9.16e-10  |ddm|= 3.43e-10
    CPU time for cycle= 15      0.50 sec, wall time      0.02 sec
Linear dependence found in DIIS error vectors.
  alpha nocc = 9  HOMO = -0.56974305035494  LUMO = 0.480008598320036
  beta  nocc = 9  HOMO = -0.569743050549026  LUMO = 0.480008598221934
  alpha mo_energy =
[-26.38744195 -26.38680309  -2.03162343  -1.38717753  -0.91577671
  -0.91577671  -0.87530387  -0.56974305  -0.56974305   0.4800086
   1.31292777   1.35127909   1.35127909   1.46379702   1.49107842
   1.49107842   1.72428107   2.5045465    3.28567663   3.28567663
   3.72514258   3.72514258   3.99514968   4.0388247    4.0388247
   4.79380906   4.79380906   5.57425722]
  beta  mo_energy =
[-26.38744195 -26.38680309  -2.03162343  -1.38717753  -0.91577671
  -0.91577671  -0.87530387  -0.56974305  -0.56974305   0.4800086
   1.31292777   1.35127909   1.35127909   1.46379702   1.49107842
   1.49107842   1.72428107   2.5045465    3.28567663   3.28567663
   3.72514258   3.72514258   3.99514968   4.0388247    4.0388247
   4.79380906   4.79380906   5.57425722]
multiplicity <S^2> = 1.0658141e-14  2S+1 = 1
E1 = -355.0434501625081  Ecoul = 117.4823356897596
cycle= 16 E= -198.594428941367  delta_E= 1.42e-13  |g|= 8.24e-10  |ddm|= 6.54e-10
    CPU time for cycle= 16      0.49 sec, wall time      0.02 sec
Linear dependence found in DIIS error vectors.
  alpha nocc = 9  HOMO = -0.569743050457168  LUMO = 0.480008598277744
  beta  nocc = 9  HOMO = -0.569743050364622  LUMO = 0.480008598448327
  alpha mo_energy =
[-26.38744195 -26.38680309  -2.03162343  -1.38717753  -0.91577671
  -0.91577671  -0.87530387  -0.56974305  -0.56974305   0.4800086
   1.31292777   1.35127909   1.35127909   1.46379702   1.49107842
   1.49107842   1.72428107   2.5045465    3.28567663   3.28567663
   3.72514258   3.72514258   3.99514968   4.0388247    4.0388247
   4.79380906   4.79380906   5.57425722]
  beta  mo_energy =
[-26.38744195 -26.38680309  -2.03162343  -1.38717753  -0.91577671
  -0.91577671  -0.87530387  -0.56974305  -0.56974305   0.4800086
   1.31292777   1.35127909   1.35127909   1.46379702   1.49107842
   1.49107842   1.72428107   2.5045465    3.28567663   3.28567663
   3.72514258   3.72514258   3.99514968   4.0388247    4.0388247
   4.79380906   4.79380906   5.57425722]
multiplicity <S^2> = 3.5527137e-15  2S+1 = 1
E1 = -355.0434501609432  Ecoul = 117.48233568819474
cycle= 17 E= -198.594428941367  delta_E= 2.84e-14  |g|= 1.28e-09  |ddm|= 1.17e-09
    CPU time for cycle= 17      0.50 sec, wall time      0.02 sec
Linear dependence found in DIIS error vectors.
  alpha nocc = 9  HOMO = -0.56974305054028  LUMO = 0.480008598278125
  beta  nocc = 9  HOMO = -0.569743050551921  LUMO = 0.480008598313685
  alpha mo_energy =
[-26.38744195 -26.38680309  -2.03162343  -1.38717753  -0.91577671
  -0.91577671  -0.87530387  -0.56974305  -0.56974305   0.4800086
   1.31292777   1.35127909   1.35127909   1.46379702   1.49107842
   1.49107842   1.72428107   2.5045465    3.28567663   3.28567663
   3.72514258   3.72514258   3.99514968   4.0388247    4.0388247
   4.79380906   4.79380906   5.57425722]
  beta  mo_energy =
[-26.38744195 -26.38680309  -2.03162343  -1.38717753  -0.91577671
  -0.91577671  -0.87530387  -0.56974305  -0.56974305   0.4800086
   1.31292777   1.35127909   1.35127909   1.46379702   1.49107842
   1.49107842   1.72428107   2.5045465    3.28567663   3.28567663
   3.72514258   3.72514258   3.99514968   4.0388247    4.0388247
   4.79380906   4.79380906   5.57425722]
multiplicity <S^2> = 3.5527137e-15  2S+1 = 1
E1 = -355.04345016327176  Ecoul = 117.48233569052331
cycle= 18 E= -198.594428941367  delta_E= 5.68e-14  |g|= 3.44e-10  |ddm|= 1.04e-09
    CPU time for cycle= 18      0.50 sec, wall time      0.02 sec
Linear dependence found in DIIS error vectors.
  alpha nocc = 9  HOMO = -0.569743050469745  LUMO = 0.480008598293183
  beta  nocc = 9  HOMO = -0.569743050607559  LUMO = 0.480008598317143
  alpha mo_energy =
[-26.38744195 -26.38680309  -2.03162343  -1.38717753  -0.91577671
  -0.91577671  -0.87530387  -0.56974305  -0.56974305   0.4800086
   1.31292777   1.35127909   1.35127909   1.46379702   1.49107842
   1.49107842   1.72428107   2.5045465    3.28567663   3.28567663
   3.72514258   3.72514258   3.99514968   4.0388247    4.0388247
   4.79380906   4.79380906   5.57425722]
  beta  mo_energy =
[-26.38744195 -26.38680309  -2.03162343  -1.38717753  -0.91577671
  -0.91577671  -0.87530387  -0.56974305  -0.56974305   0.4800086
   1.31292777   1.35127909   1.35127909   1.46379702   1.49107842
   1.49107842   1.72428107   2.5045465    3.28567663   3.28567663
   3.72514258   3.72514258   3.99514968   4.0388247    4.0388247
   4.79380906   4.79380906   5.57425722]
multiplicity <S^2> = 0  2S+1 = 1
E1 = -355.0434501631498  Ecoul = 117.48233569040136
cycle= 19 E= -198.594428941367  delta_E= -2.84e-14  |g|= 4.18e-10  |ddm|= 3.29e-10
    CPU time for cycle= 19      0.50 sec, wall time      0.02 sec
Linear dependence found in DIIS error vectors.
  alpha nocc = 9  HOMO = -0.56974305050583  LUMO = 0.480008598301174
  beta  nocc = 9  HOMO = -0.569743050571347  LUMO = 0.48000859831761
  alpha mo_energy =
[-26.38744195 -26.38680309  -2.03162343  -1.38717753  -0.91577671
  -0.91577671  -0.87530387  -0.56974305  -0.56974305   0.4800086
   1.31292777   1.35127909   1.35127909   1.46379702   1.49107842
   1.49107842   1.72428107   2.5045465    3.28567663   3.28567663
   3.72514258   3.72514258   3.99514968   4.0388247    4.0388247
   4.79380906   4.79380906   5.57425722]
  beta  mo_energy =
[-26.38744195 -26.38680309  -2.03162343  -1.38717753  -0.91577671
  -0.91577671  -0.87530387  -0.56974305  -0.56974305   0.4800086
   1.31292777   1.35127909   1.35127909   1.46379702   1.49107842
   1.49107842   1.72428107   2.5045465    3.28567663   3.28567663
   3.72514258   3.72514258   3.99514968   4.0388247    4.0388247
   4.79380906   4.79380906   5.57425722]
multiplicity <S^2> = 0  2S+1 = 1
E1 = -355.0434501631829  Ecoul = 117.48233569043444
cycle= 20 E= -198.594428941367  delta_E=    0  |g|= 2.6e-10  |ddm|= 2.34e-10
    CPU time for cycle= 20      0.50 sec, wall time      0.02 sec
Linear dependence found in DIIS error vectors.
  alpha nocc = 9  HOMO = -0.569743050528198  LUMO = 0.480008598291863
  beta  nocc = 9  HOMO = -0.569743050576245  LUMO = 0.480008598304441
  alpha mo_energy =
[-26.38744195 -26.38680309  -2.03162343  -1.38717753  -0.91577671
  -0.91577671  -0.87530387  -0.56974305  -0.56974305   0.4800086
   1.31292777   1.35127909   1.35127909   1.46379702   1.49107842
   1.49107842   1.72428107   2.5045465    3.28567663   3.28567663
   3.72514258   3.72514258   3.99514968   4.0388247    4.0388247
   4.79380906   4.79380906   5.57425722]
  beta  mo_energy =
[-26.38744195 -26.38680309  -2.03162343  -1.38717753  -0.91577671
  -0.91577671  -0.87530387  -0.56974305  -0.56974305   0.4800086
   1.31292777   1.35127909   1.35127909   1.46379702   1.49107842
   1.49107842   1.72428107   2.5045465    3.28567663   3.28567663
   3.72514258   3.72514258   3.99514968   4.0388247    4.0388247
   4.79380906   4.79380906   5.57425722]
multiplicity <S^2> = 1.7763568e-15  2S+1 = 1
E1 = -355.04345016332024  Ecoul = 117.48233569057182
cycle= 21 E= -198.594428941367  delta_E= 2.84e-14  |g|= 2.03e-10  |ddm|= 7.48e-11
    CPU time for cycle= 21      0.50 sec, wall time      0.02 sec
Linear dependence found in DIIS error vectors.
  alpha nocc = 9  HOMO = -0.569743050530786  LUMO = 0.480008598298592
  beta  nocc = 9  HOMO = -0.569743050568269  LUMO = 0.480008598308849
  alpha mo_energy =
[-26.38744195 -26.38680309  -2.03162343  -1.38717753  -0.91577671
  -0.91577671  -0.87530387  -0.56974305  -0.56974305   0.4800086
   1.31292777   1.35127909   1.35127909   1.46379702   1.49107842
   1.49107842   1.72428107   2.5045465    3.28567663   3.28567663
   3.72514258   3.72514258   3.99514968   4.0388247    4.0388247
   4.79380906   4.79380906   5.57425722]
  beta  mo_energy =
[-26.38744195 -26.38680309  -2.03162343  -1.38717753  -0.91577671
  -0.91577671  -0.87530387  -0.56974305  -0.56974305   0.4800086
   1.31292777   1.35127909   1.35127909   1.46379702   1.49107842
   1.49107842   1.72428107   2.5045465    3.28567663   3.28567663
   3.72514258   3.72514258   3.99514968   4.0388247    4.0388247
   4.79380906   4.79380906   5.57425722]
multiplicity <S^2> = 7.1054274e-15  2S+1 = 1
E1 = -355.0434501632902  Ecoul = 117.48233569054165
cycle= 22 E= -198.594428941367  delta_E= -8.53e-14  |g|= 1.62e-10  |ddm|= 4.72e-11
    CPU time for cycle= 22      0.49 sec, wall time      0.02 sec
Linear dependence found in DIIS error vectors.
  alpha nocc = 9  HOMO = -0.569743050533012  LUMO = 0.480008598302883
  beta  nocc = 9  HOMO = -0.56974305056281  LUMO = 0.480008598312492
  alpha mo_energy =
[-26.38744195 -26.38680309  -2.03162343  -1.38717753  -0.91577671
  -0.91577671  -0.87530387  -0.56974305  -0.56974305   0.4800086
   1.31292777   1.35127909   1.35127909   1.46379702   1.49107842
   1.49107842   1.72428107   2.5045465    3.28567663   3.28567663
   3.72514258   3.72514258   3.99514968   4.0388247    4.0388247
   4.79380906   4.79380906   5.57425722]
  beta  mo_energy =
[-26.38744195 -26.38680309  -2.03162343  -1.38717753  -0.91577671
  -0.91577671  -0.87530387  -0.56974305  -0.56974305   0.4800086
   1.31292777   1.35127909   1.35127909   1.46379702   1.49107842
   1.49107842   1.72428107   2.5045465    3.28567663   3.28567663
   3.72514258   3.72514258   3.99514968   4.0388247    4.0388247
   4.79380906   4.79380906   5.57425722]
multiplicity <S^2> = 0  2S+1 = 1
E1 = -355.04345016326715  Ecoul = 117.48233569051862
cycle= 23 E= -198.594428941367  delta_E=    0  |g|= 1.32e-10  |ddm|= 3.45e-11
    CPU time for cycle= 23      0.50 sec, wall time      0.02 sec
Linear dependence found in DIIS error vectors.
  alpha nocc = 9  HOMO = -0.569743050532076  LUMO = 0.480008598310701
  beta  nocc = 9  HOMO = -0.569743050559422  LUMO = 0.480008598315544
  alpha mo_energy =
[-26.38744195 -26.38680309  -2.03162343  -1.38717753  -0.91577671
  -0.91577671  -0.87530387  -0.56974305  -0.56974305   0.4800086
   1.31292777   1.35127909   1.35127909   1.46379702   1.49107842
   1.49107842   1.72428107   2.5045465    3.28567663   3.28567663
   3.72514258   3.72514258   3.99514968   4.0388247    4.0388247
   4.79380906   4.79380906   5.57425722]
  beta  mo_energy =
[-26.38744195 -26.38680309  -2.03162343  -1.38717753  -0.91577671
  -0.91577671  -0.87530387  -0.56974305  -0.56974305   0.4800086
   1.31292777   1.35127909   1.35127909   1.46379702   1.49107842
   1.49107842   1.72428107   2.5045465    3.28567663   3.28567663
   3.72514258   3.72514258   3.99514968   4.0388247    4.0388247
   4.79380906   4.79380906   5.57425722]
multiplicity <S^2> = -1.7763568e-15  2S+1 = 1
E1 = -355.04345016324066  Ecoul = 117.48233569049202
cycle= 24 E= -198.594428941367  delta_E= -1.14e-13  |g|= 1.09e-10  |ddm|= 2.96e-11
    CPU time for cycle= 24      0.49 sec, wall time      0.02 sec
Linear dependence found in DIIS error vectors.
  alpha nocc = 9  HOMO = -0.569743050535616  LUMO = 0.48000859831252
  beta  nocc = 9  HOMO = -0.569743050552116  LUMO = 0.48000859832477
  alpha mo_energy =
[-26.38744195 -26.38680309  -2.03162343  -1.38717753  -0.91577671
  -0.91577671  -0.87530387  -0.56974305  -0.56974305   0.4800086
   1.31292777   1.35127909   1.35127909   1.46379702   1.49107842
   1.49107842   1.72428107   2.5045465    3.28567663   3.28567663
   3.72514258   3.72514258   3.99514968   4.0388247    4.0388247
   4.79380906   4.79380906   5.57425722]
  beta  mo_energy =
[-26.38744195 -26.38680309  -2.03162343  -1.38717753  -0.91577671
  -0.91577671  -0.87530387  -0.56974305  -0.56974305   0.4800086
   1.31292777   1.35127909   1.35127909   1.46379702   1.49107842
   1.49107842   1.72428107   2.5045465    3.28567663   3.28567663
   3.72514258   3.72514258   3.99514968   4.0388247    4.0388247
   4.79380906   4.79380906   5.57425722]
multiplicity <S^2> = 1.7763568e-15  2S+1 = 1
E1 = -355.04345016321855  Ecoul = 117.48233569046988
cycle= 25 E= -198.594428941367  delta_E= -2.84e-14  |g|= 9.48e-11  |ddm|= 3.21e-11
    CPU time for cycle= 25      0.50 sec, wall time      0.02 sec
  alpha nocc = 9  HOMO = -0.569743050535285  LUMO = 0.48000859832625
  beta  nocc = 9  HOMO = -0.569743050543346  LUMO = 0.480008598330967
  alpha mo_energy =
[-26.38744195 -26.38680309  -2.03162343  -1.38717753  -0.91577671
  -0.91577671  -0.87530387  -0.56974305  -0.56974305   0.4800086
   1.31292777   1.35127909   1.35127909   1.46379702   1.49107842
   1.49107842   1.72428107   2.5045465    3.28567663   3.28567663
   3.72514258   3.72514258   3.99514968   4.0388247    4.0388247
   4.79380906   4.79380906   5.57425722]
  beta  mo_energy =
[-26.38744195 -26.38680309  -2.03162343  -1.38717753  -0.91577671
  -0.91577671  -0.87530387  -0.56974305  -0.56974305   0.4800086
   1.31292777   1.35127909   1.35127909   1.46379702   1.49107842
   1.49107842   1.72428107   2.5045465    3.28567663   3.28567663
   3.72514258   3.72514258   3.99514968   4.0388247    4.0388247
   4.79380906   4.79380906   5.57425722]
multiplicity <S^2> = -1.7763568e-15  2S+1 = 1
E1 = -355.04345016317995  Ecoul = 117.4823356904315
Extra cycle  E= -198.594428941367  delta_E= 2.27e-13  |g|= 3.12e-11  |ddm|= 7.04e-11
    CPU time for scf_cycle     16.29 sec, wall time      0.76 sec
    CPU time for SCF     16.30 sec, wall time      0.76 sec
converged SCF energy = -198.594428941367  <S^2> = -1.7763568e-15  2S+1 = 1
mo energy: (28,)
total 2e- integral energy: 117.48233569043151
(28, 28, 28, 28)
final rhf/uhf energy: -198.59442894136674
moE: [-26.38744195 -26.38680309  -2.03162343  -1.38717753  -0.91577671
  -0.91577671  -0.87530387  -0.56974305  -0.56974305   0.4800086
   1.31292777   1.35127909   1.35127909   1.46379702   1.49107842
   1.49107842   1.72428107   2.5045465    3.28567663   3.28567663
   3.72514258   3.72514258   3.99514968   4.0388247    4.0388247
   4.79380906   4.79380906   5.57425722] [-26.38744195 -26.38680309  -2.03162343  -1.38717753  -0.91577671
  -0.91577671  -0.87530387  -0.56974305  -0.56974305   0.4800086
   1.31292777   1.35127909   1.35127909   1.46379702   1.49107842
   1.49107842   1.72428107   2.5045465    3.28567663   3.28567663
   3.72514258   3.72514258   3.99514968   4.0388247    4.0388247
   4.79380906   4.79380906   5.57425722]
slice(None, 9, None) slice(9, None, None)
eabij_aa: [[[[-0.01860988 -0.0186101  -0.03403782 ... -0.03543239 -0.03582021
    -0.03582021]
   [-0.0186101  -0.01861032 -0.03403856 ... -0.03543319 -0.03582103
    -0.03582103]
   [-0.03403782 -0.03403856 -0.19907375 ... -0.25860211 -0.28078974
    -0.28078974]
   ...
   [-0.03543239 -0.03543319 -0.25860211 ... -0.36891862 -0.41578933
    -0.41578933]
   [-0.03582021 -0.03582103 -0.28078974 ... -0.41578933 -0.47630313
    -0.47630313]
   [-0.03582021 -0.03582103 -0.28078974 ... -0.41578933 -0.47630313
    -0.47630313]]

  [[-0.01832582 -0.01832603 -0.03309943 ... -0.03441668 -0.03478246
    -0.03478246]
   [-0.01832603 -0.01832625 -0.03310013 ... -0.03441743 -0.03478323
    -0.03478323]
   [-0.03309943 -0.03310013 -0.17075968 ... -0.21277213 -0.22756738
    -0.22756738]
   ...
   [-0.03441668 -0.03441743 -0.21277213 ... -0.28220335 -0.30883421
    -0.30883421]
   [-0.03478246 -0.03478323 -0.22756738 ... -0.30883421 -0.34101498
    -0.34101498]
   [-0.03478246 -0.03478323 -0.22756738 ... -0.30883421 -0.34101498
    -0.34101498]]

  [[-0.01831295 -0.01831316 -0.03305747 ... -0.03437131 -0.03473613
    -0.03473613]
   [-0.01831316 -0.01831338 -0.03305816 ... -0.03437206 -0.0347369
    -0.0347369 ]
   [-0.03305747 -0.03305816 -0.16964868 ... -0.21104994 -0.22559847
    -0.22559847]
   ...
   [-0.03437131 -0.03437206 -0.21104994 ... -0.2791818  -0.30521913
    -0.30521913]
   [-0.03473613 -0.0347369  -0.22559847 ... -0.30521913 -0.33661264
    -0.33661264]
   [-0.03473613 -0.0347369  -0.22559847 ... -0.30521913 -0.33661264
    -0.33661264]]

  ...

  [[-0.01722691 -0.0172271  -0.02967986 ... -0.03073465 -0.03102603
    -0.03102603]
   [-0.0172271  -0.01722729 -0.02968042 ... -0.03073526 -0.03102664
    -0.03102664]
   [-0.02967986 -0.02968042 -0.10710004 ... -0.12223826 -0.12698116
    -0.12698116]
   ...
   [-0.03073465 -0.03073526 -0.12223826 ... -0.1423604  -0.14883467
    -0.14883467]
   [-0.03102603 -0.03102664 -0.12698116 ... -0.14883467 -0.15592587
    -0.15592587]
   [-0.03102603 -0.03102664 -0.12698116 ... -0.14883467 -0.15592587
    -0.15592587]]

  [[-0.01722691 -0.0172271  -0.02967986 ... -0.03073465 -0.03102603
    -0.03102603]
   [-0.0172271  -0.01722729 -0.02968042 ... -0.03073526 -0.03102664
    -0.03102664]
   [-0.02967986 -0.02968042 -0.10710004 ... -0.12223826 -0.12698116
    -0.12698116]
   ...
   [-0.03073465 -0.03073526 -0.12223826 ... -0.1423604  -0.14883467
    -0.14883467]
   [-0.03102603 -0.03102664 -0.12698116 ... -0.14883467 -0.15592587
    -0.15592587]
   [-0.03102603 -0.03102664 -0.12698116 ... -0.14883467 -0.15592587
    -0.15592587]]

  [[-0.01699838 -0.01699856 -0.02900793 ... -0.0300147  -0.03029252
    -0.03029252]
   [-0.01699856 -0.01699875 -0.02900847 ... -0.03001527 -0.03029311
    -0.03029311]
   [-0.02900793 -0.02900847 -0.09883852 ... -0.11159228 -0.11553171
    -0.11553171]
   ...
   [-0.0300147  -0.03001527 -0.11159228 ... -0.12812507 -0.13334555
    -0.13334555]
   [-0.03029252 -0.03029311 -0.11553171 ... -0.13334555 -0.13900952
    -0.13900952]
   [-0.03029252 -0.03029311 -0.11553171 ... -0.13334555 -0.13900952
    -0.13900952]]]


 [[[-0.01832582 -0.01832603 -0.03309943 ... -0.03441668 -0.03478246
    -0.03478246]
   [-0.01832603 -0.01832625 -0.03310013 ... -0.03441743 -0.03478323
    -0.03478323]
   [-0.03309943 -0.03310013 -0.17075968 ... -0.21277213 -0.22756738
    -0.22756738]
   ...
   [-0.03441668 -0.03441743 -0.21277213 ... -0.28220335 -0.30883421
    -0.30883421]
   [-0.03478246 -0.03478323 -0.22756738 ... -0.30883421 -0.34101498
    -0.34101498]
   [-0.03478246 -0.03478323 -0.22756738 ... -0.30883421 -0.34101498
    -0.34101498]]

  [[-0.0180503  -0.01805051 -0.03221139 ... -0.03345757 -0.03380315
    -0.03380315]
   [-0.01805051 -0.01805072 -0.03221205 ... -0.03345829 -0.03380388
    -0.03380388]
   [-0.03221139 -0.03221205 -0.14949689 ... -0.18074087 -0.1913062
    -0.1913062 ]
   ...
   [-0.03345757 -0.03345829 -0.18074087 ... -0.22849501 -0.24564578
    -0.24564578]
   [-0.03380315 -0.03380388 -0.1913062  ... -0.24564578 -0.26558015
    -0.26558015]
   [-0.03380315 -0.03380388 -0.1913062  ... -0.24564578 -0.26558015
    -0.26558015]]

  [[-0.01803781 -0.01803802 -0.03217164 ... -0.0334147  -0.03375939
    -0.03375939]
   [-0.01803802 -0.01803823 -0.03217231 ... -0.03341541 -0.03376011
    -0.03376011]
   [-0.03217164 -0.03217231 -0.14864465 ... -0.17949666 -0.18991284
    -0.18991284]
   ...
   [-0.0334147  -0.03341541 -0.17949666 ... -0.22651008 -0.24335319
    -0.24335319]
   [-0.03375939 -0.03376011 -0.18991284 ... -0.24335319 -0.2629024
    -0.2629024 ]
   [-0.03375939 -0.03376011 -0.18991284 ... -0.24335319 -0.2629024
    -0.2629024 ]]

  ...

  [[-0.01698323 -0.01698341 -0.02896385 ... -0.0299675  -0.03024445
    -0.03024445]
   [-0.01698341 -0.0169836  -0.02896438 ... -0.02996807 -0.03024503
    -0.03024503]
   [-0.02896385 -0.02896438 -0.09832857 ... -0.11094267 -0.11483557
    -0.11483557]
   ...
   [-0.0299675  -0.02996807 -0.11094267 ... -0.12726946 -0.13241905
    -0.13241905]
   [-0.03024445 -0.03024503 -0.11483557 ... -0.13241905 -0.13800293
    -0.13800293]
   [-0.03024445 -0.03024503 -0.11483557 ... -0.13241905 -0.13800293
    -0.13800293]]

  [[-0.01698323 -0.01698341 -0.02896385 ... -0.0299675  -0.03024445
    -0.03024445]
   [-0.01698341 -0.0169836  -0.02896438 ... -0.02996807 -0.03024503
    -0.03024503]
   [-0.02896385 -0.02896438 -0.09832857 ... -0.11094267 -0.11483557
    -0.11483557]
   ...
   [-0.0299675  -0.02996807 -0.11094267 ... -0.12726946 -0.13241905
    -0.13241905]
   [-0.03024445 -0.03024503 -0.11483557 ... -0.13241905 -0.13800293
    -0.13800293]
   [-0.03024445 -0.03024503 -0.11483557 ... -0.13241905 -0.13800293
    -0.13800293]]

  [[-0.01676107 -0.01676125 -0.0283236  ... -0.02928264 -0.02954701
    -0.02954701]
   [-0.01676125 -0.01676143 -0.02832411 ... -0.02928318 -0.02954757
    -0.02954757]
   [-0.0283236  -0.02832411 -0.0913206  ... -0.10210216 -0.10539016
    -0.10539016]
   ...
   [-0.02928264 -0.02928318 -0.10210216 ... -0.11577032 -0.12001586
    -0.12001586]
   [-0.02954701 -0.02954757 -0.10539016 ... -0.12001586 -0.12458465
    -0.12458465]
   [-0.02954701 -0.02954757 -0.10539016 ... -0.12001586 -0.12458465
    -0.12458465]]]


 [[[-0.01831295 -0.01831316 -0.03305747 ... -0.03437131 -0.03473613
    -0.03473613]
   [-0.01831316 -0.01831338 -0.03305816 ... -0.03437206 -0.0347369
    -0.0347369 ]
   [-0.03305747 -0.03305816 -0.16964868 ... -0.21104994 -0.22559847
    -0.22559847]
   ...
   [-0.03437131 -0.03437206 -0.21104994 ... -0.2791818  -0.30521913
    -0.30521913]
   [-0.03473613 -0.0347369  -0.22559847 ... -0.30521913 -0.33661264
    -0.33661264]
   [-0.03473613 -0.0347369  -0.22559847 ... -0.30521913 -0.33661264
    -0.33661264]]

  [[-0.01803781 -0.01803802 -0.03217164 ... -0.0334147  -0.03375939
    -0.03375939]
   [-0.01803802 -0.01803823 -0.03217231 ... -0.03341541 -0.03376011
    -0.03376011]
   [-0.03217164 -0.03217231 -0.14864465 ... -0.17949666 -0.18991284
    -0.18991284]
   ...
   [-0.0334147  -0.03341541 -0.17949666 ... -0.22651008 -0.24335319
    -0.24335319]
   [-0.03375939 -0.03376011 -0.18991284 ... -0.24335319 -0.2629024
    -0.2629024 ]
   [-0.03375939 -0.03376011 -0.18991284 ... -0.24335319 -0.2629024
    -0.2629024 ]]

  [[-0.01802534 -0.01802555 -0.032132   ... -0.03337193 -0.03371573
    -0.03371573]
   [-0.01802555 -0.01802576 -0.03213266 ... -0.03337264 -0.03371646
    -0.03371646]
   [-0.032132   -0.03213266 -0.14780207 ... -0.17826947 -0.18853963
    -0.18853963]
   ...
   [-0.03337193 -0.03337264 -0.17826947 ... -0.22455934 -0.24110299
    -0.24110299]
   [-0.03371573 -0.03371646 -0.18853963 ... -0.24110299 -0.2602781
    -0.2602781 ]
   [-0.03371573 -0.03371646 -0.18853963 ... -0.24110299 -0.2602781
    -0.2602781 ]]

  ...

  [[-0.01697217 -0.01697236 -0.02893171 ... -0.0299331  -0.03020941
    -0.03020941]
   [-0.01697236 -0.01697254 -0.02893224 ... -0.02993367 -0.03020999
    -0.03020999]
   [-0.02893171 -0.02893224 -0.09795917 ... -0.11047264 -0.11433204
    -0.11433204]
   ...
   [-0.0299331  -0.02993367 -0.11047264 ... -0.12665128 -0.13174996
    -0.13174996]
   [-0.03020941 -0.03020999 -0.11433204 ... -0.13174996 -0.13727638
    -0.13727638]
   [-0.03020941 -0.03020999 -0.11433204 ... -0.13174996 -0.13727638
    -0.13727638]]

  [[-0.01697217 -0.01697236 -0.02893171 ... -0.0299331  -0.03020941
    -0.03020941]
   [-0.01697236 -0.01697254 -0.02893224 ... -0.02993367 -0.03020999
    -0.03020999]
   [-0.02893171 -0.02893224 -0.09795917 ... -0.11047264 -0.11433204
    -0.11433204]
   ...
   [-0.0299331  -0.02993367 -0.11047264 ... -0.12665128 -0.13174996
    -0.13174996]
   [-0.03020941 -0.03020999 -0.11433204 ... -0.13174996 -0.13727638
    -0.13727638]
   [-0.03020941 -0.03020999 -0.11433204 ... -0.13174996 -0.13727638
    -0.13727638]]

  [[-0.0167503  -0.01675048 -0.02829286 ... -0.02924979 -0.02951357
    -0.02951357]
   [-0.01675048 -0.01675066 -0.02829338 ... -0.02925033 -0.02951412
    -0.02951412]
   [-0.02829286 -0.02829338 -0.09100189 ... -0.10170391 -0.10496591
    -0.10496591]
   ...
   [-0.02924979 -0.02925033 -0.10170391 ... -0.11525858 -0.11946599
    -0.11946599]
   [-0.02951357 -0.02951412 -0.10496591 ... -0.11946599 -0.12399222
    -0.12399222]
   [-0.02951357 -0.02951412 -0.10496591 ... -0.11946599 -0.12399222
    -0.12399222]]]


 ...


 [[[-0.01722691 -0.0172271  -0.02967986 ... -0.03073465 -0.03102603
    -0.03102603]
   [-0.0172271  -0.01722729 -0.02968042 ... -0.03073526 -0.03102664
    -0.03102664]
   [-0.02967986 -0.02968042 -0.10710004 ... -0.12223826 -0.12698116
    -0.12698116]
   ...
   [-0.03073465 -0.03073526 -0.12223826 ... -0.1423604  -0.14883467
    -0.14883467]
   [-0.03102603 -0.03102664 -0.12698116 ... -0.14883467 -0.15592587
    -0.15592587]
   [-0.03102603 -0.03102664 -0.12698116 ... -0.14883467 -0.15592587
    -0.15592587]]

  [[-0.01698323 -0.01698341 -0.02896385 ... -0.0299675  -0.03024445
    -0.03024445]
   [-0.01698341 -0.0169836  -0.02896438 ... -0.02996807 -0.03024503
    -0.03024503]
   [-0.02896385 -0.02896438 -0.09832857 ... -0.11094267 -0.11483557
    -0.11483557]
   ...
   [-0.0299675  -0.02996807 -0.11094267 ... -0.12726946 -0.13241905
    -0.13241905]
   [-0.03024445 -0.03024503 -0.11483557 ... -0.13241905 -0.13800293
    -0.13800293]
   [-0.03024445 -0.03024503 -0.11483557 ... -0.13241905 -0.13800293
    -0.13800293]]

  [[-0.01697217 -0.01697236 -0.02893171 ... -0.0299331  -0.03020941
    -0.03020941]
   [-0.01697236 -0.01697254 -0.02893224 ... -0.02993367 -0.03020999
    -0.03020999]
   [-0.02893171 -0.02893224 -0.09795917 ... -0.11047264 -0.11433204
    -0.11433204]
   ...
   [-0.0299331  -0.02993367 -0.11047264 ... -0.12665128 -0.13174996
    -0.13174996]
   [-0.03020941 -0.03020999 -0.11433204 ... -0.13174996 -0.13727638
    -0.13727638]
   [-0.03020941 -0.03020999 -0.11433204 ... -0.13174996 -0.13727638
    -0.13727638]]

  ...

  [[-0.01603528 -0.01603544 -0.02631116 ... -0.02713677 -0.02736367
    -0.02736367]
   [-0.01603544 -0.01603561 -0.0263116  ... -0.02713724 -0.02736415
    -0.02736415]
   [-0.02631116 -0.0263116  -0.07325543 ... -0.08003492 -0.08204129
    -0.08204129]
   ...
   [-0.02713677 -0.02713724 -0.08003492 ... -0.08819722 -0.09063993
    -0.09063993]
   [-0.02736367 -0.02736415 -0.08204129 ... -0.09063993 -0.0932218
    -0.0932218 ]
   [-0.02736367 -0.02736415 -0.08204129 ... -0.09063993 -0.0932218
    -0.0932218 ]]

  [[-0.01603528 -0.01603544 -0.02631116 ... -0.02713677 -0.02736367
    -0.02736367]
   [-0.01603544 -0.01603561 -0.0263116  ... -0.02713724 -0.02736415
    -0.02736415]
   [-0.02631116 -0.0263116  -0.07325543 ... -0.08003492 -0.08204129
    -0.08204129]
   ...
   [-0.02713677 -0.02713724 -0.08003492 ... -0.08819722 -0.09063993
    -0.09063993]
   [-0.02736367 -0.02736415 -0.08204129 ... -0.09063993 -0.0932218
    -0.0932218 ]
   [-0.02736367 -0.02736415 -0.08204129 ... -0.09063993 -0.0932218
    -0.0932218 ]]

  [[-0.01583708 -0.01583724 -0.02578175 ... -0.02657397 -0.02679151
    -0.02679151]
   [-0.01583724 -0.0158374  -0.02578217 ... -0.02657442 -0.02679197
    -0.02679197]
   [-0.02578175 -0.02578217 -0.06929376 ... -0.0753296  -0.07710437
    -0.07710437]
   ...
   [-0.02657397 -0.02657442 -0.0753296  ... -0.08251728 -0.08465169
    -0.08465169]
   [-0.02679151 -0.02679197 -0.07710437 ... -0.08465169 -0.08689945
    -0.08689945]
   [-0.02679151 -0.02679197 -0.07710437 ... -0.08465169 -0.08689945
    -0.08689945]]]


 [[[-0.01722691 -0.0172271  -0.02967986 ... -0.03073465 -0.03102603
    -0.03102603]
   [-0.0172271  -0.01722729 -0.02968042 ... -0.03073526 -0.03102664
    -0.03102664]
   [-0.02967986 -0.02968042 -0.10710004 ... -0.12223826 -0.12698116
    -0.12698116]
   ...
   [-0.03073465 -0.03073526 -0.12223826 ... -0.1423604  -0.14883467
    -0.14883467]
   [-0.03102603 -0.03102664 -0.12698116 ... -0.14883467 -0.15592587
    -0.15592587]
   [-0.03102603 -0.03102664 -0.12698116 ... -0.14883467 -0.15592587
    -0.15592587]]

  [[-0.01698323 -0.01698341 -0.02896385 ... -0.0299675  -0.03024445
    -0.03024445]
   [-0.01698341 -0.0169836  -0.02896438 ... -0.02996807 -0.03024503
    -0.03024503]
   [-0.02896385 -0.02896438 -0.09832857 ... -0.11094267 -0.11483557
    -0.11483557]
   ...
   [-0.0299675  -0.02996807 -0.11094267 ... -0.12726946 -0.13241905
    -0.13241905]
   [-0.03024445 -0.03024503 -0.11483557 ... -0.13241905 -0.13800293
    -0.13800293]
   [-0.03024445 -0.03024503 -0.11483557 ... -0.13241905 -0.13800293
    -0.13800293]]

  [[-0.01697217 -0.01697236 -0.02893171 ... -0.0299331  -0.03020941
    -0.03020941]
   [-0.01697236 -0.01697254 -0.02893224 ... -0.02993367 -0.03020999
    -0.03020999]
   [-0.02893171 -0.02893224 -0.09795917 ... -0.11047264 -0.11433204
    -0.11433204]
   ...
   [-0.0299331  -0.02993367 -0.11047264 ... -0.12665128 -0.13174996
    -0.13174996]
   [-0.03020941 -0.03020999 -0.11433204 ... -0.13174996 -0.13727638
    -0.13727638]
   [-0.03020941 -0.03020999 -0.11433204 ... -0.13174996 -0.13727638
    -0.13727638]]

  ...

  [[-0.01603528 -0.01603544 -0.02631116 ... -0.02713677 -0.02736367
    -0.02736367]
   [-0.01603544 -0.01603561 -0.0263116  ... -0.02713724 -0.02736415
    -0.02736415]
   [-0.02631116 -0.0263116  -0.07325543 ... -0.08003492 -0.08204129
    -0.08204129]
   ...
   [-0.02713677 -0.02713724 -0.08003492 ... -0.08819722 -0.09063993
    -0.09063993]
   [-0.02736367 -0.02736415 -0.08204129 ... -0.09063993 -0.0932218
    -0.0932218 ]
   [-0.02736367 -0.02736415 -0.08204129 ... -0.09063993 -0.0932218
    -0.0932218 ]]

  [[-0.01603528 -0.01603544 -0.02631116 ... -0.02713677 -0.02736367
    -0.02736367]
   [-0.01603544 -0.01603561 -0.0263116  ... -0.02713724 -0.02736415
    -0.02736415]
   [-0.02631116 -0.0263116  -0.07325543 ... -0.08003492 -0.08204129
    -0.08204129]
   ...
   [-0.02713677 -0.02713724 -0.08003492 ... -0.08819722 -0.09063993
    -0.09063993]
   [-0.02736367 -0.02736415 -0.08204129 ... -0.09063993 -0.0932218
    -0.0932218 ]
   [-0.02736367 -0.02736415 -0.08204129 ... -0.09063993 -0.0932218
    -0.0932218 ]]

  [[-0.01583708 -0.01583724 -0.02578175 ... -0.02657397 -0.02679151
    -0.02679151]
   [-0.01583724 -0.0158374  -0.02578217 ... -0.02657442 -0.02679197
    -0.02679197]
   [-0.02578175 -0.02578217 -0.06929376 ... -0.0753296  -0.07710437
    -0.07710437]
   ...
   [-0.02657397 -0.02657442 -0.0753296  ... -0.08251728 -0.08465169
    -0.08465169]
   [-0.02679151 -0.02679197 -0.07710437 ... -0.08465169 -0.08689945
    -0.08689945]
   [-0.02679151 -0.02679197 -0.07710437 ... -0.08465169 -0.08689945
    -0.08689945]]]


 [[[-0.01699838 -0.01699856 -0.02900793 ... -0.0300147  -0.03029252
    -0.03029252]
   [-0.01699856 -0.01699875 -0.02900847 ... -0.03001527 -0.03029311
    -0.03029311]
   [-0.02900793 -0.02900847 -0.09883852 ... -0.11159228 -0.11553171
    -0.11553171]
   ...
   [-0.0300147  -0.03001527 -0.11159228 ... -0.12812507 -0.13334555
    -0.13334555]
   [-0.03029252 -0.03029311 -0.11553171 ... -0.13334555 -0.13900952
    -0.13900952]
   [-0.03029252 -0.03029311 -0.11553171 ... -0.13334555 -0.13900952
    -0.13900952]]

  [[-0.01676107 -0.01676125 -0.0283236  ... -0.02928264 -0.02954701
    -0.02954701]
   [-0.01676125 -0.01676143 -0.02832411 ... -0.02928318 -0.02954757
    -0.02954757]
   [-0.0283236  -0.02832411 -0.0913206  ... -0.10210216 -0.10539016
    -0.10539016]
   ...
   [-0.02928264 -0.02928318 -0.10210216 ... -0.11577032 -0.12001586
    -0.12001586]
   [-0.02954701 -0.02954757 -0.10539016 ... -0.12001586 -0.12458465
    -0.12458465]
   [-0.02954701 -0.02954757 -0.10539016 ... -0.12001586 -0.12458465
    -0.12458465]]

  [[-0.0167503  -0.01675048 -0.02829286 ... -0.02924979 -0.02951357
    -0.02951357]
   [-0.01675048 -0.01675066 -0.02829338 ... -0.02925033 -0.02951412
    -0.02951412]
   [-0.02829286 -0.02829338 -0.09100189 ... -0.10170391 -0.10496591
    -0.10496591]
   ...
   [-0.02924979 -0.02925033 -0.10170391 ... -0.11525858 -0.11946599
    -0.11946599]
   [-0.02951357 -0.02951412 -0.10496591 ... -0.11946599 -0.12399222
    -0.12399222]
   [-0.02951357 -0.02951412 -0.10496591 ... -0.11946599 -0.12399222
    -0.12399222]]

  ...

  [[-0.01583708 -0.01583724 -0.02578175 ... -0.02657397 -0.02679151
    -0.02679151]
   [-0.01583724 -0.0158374  -0.02578217 ... -0.02657442 -0.02679197
    -0.02679197]
   [-0.02578175 -0.02578217 -0.06929376 ... -0.0753296  -0.07710437
    -0.07710437]
   ...
   [-0.02657397 -0.02657442 -0.0753296  ... -0.08251728 -0.08465169
    -0.08465169]
   [-0.02679151 -0.02679197 -0.07710437 ... -0.08465169 -0.08689945
    -0.08689945]
   [-0.02679151 -0.02679197 -0.07710437 ... -0.08465169 -0.08689945
    -0.08689945]]

  [[-0.01583708 -0.01583724 -0.02578175 ... -0.02657397 -0.02679151
    -0.02679151]
   [-0.01583724 -0.0158374  -0.02578217 ... -0.02657442 -0.02679197
    -0.02679197]
   [-0.02578175 -0.02578217 -0.06929376 ... -0.0753296  -0.07710437
    -0.07710437]
   ...
   [-0.02657397 -0.02657442 -0.0753296  ... -0.08251728 -0.08465169
    -0.08465169]
   [-0.02679151 -0.02679197 -0.07710437 ... -0.08465169 -0.08689945
    -0.08689945]
   [-0.02679151 -0.02679197 -0.07710437 ... -0.08465169 -0.08689945
    -0.08689945]]

  [[-0.01564372 -0.01564388 -0.02527322 ... -0.02603403 -0.02624279
    -0.02624279]
   [-0.01564388 -0.01564404 -0.02527362 ... -0.02603447 -0.02624323
    -0.02624323]
   [-0.02527322 -0.02527362 -0.06573861 ... -0.07114682 -0.0727279
    -0.0727279 ]
   ...
   [-0.02603403 -0.02603447 -0.07114682 ... -0.07752466 -0.07940566
    -0.07940566]
   [-0.02624279 -0.02624323 -0.0727279  ... -0.07940566 -0.0813802
    -0.0813802 ]
   [-0.02624279 -0.02624323 -0.0727279  ... -0.07940566 -0.0813802
    -0.0813802 ]]]] (19, 19, 9, 9)
hf energy: -198.59442894136663
nuclear repulsion: 38.96668553138181
(28, 28, 28, 28)
initial energy: -237.56111447274856
    ==>  CCD  amplitude equations <==

     Iter              Corr. Energy                 |dE|    

        0      -0.363814914536       0.363814914536 

        1      -0.366461878462       0.002646963926 

        2      -0.370159811174       0.003697932712 

        3      -0.370778035038       0.000618223864 

        4      -0.370998890615       0.000220855576 

        5      -0.371120980178       0.000122089564 

        6      -0.371112243434       0.000008736745 

        7      -0.371113090312       0.000000846878 

        8      -0.371113400912       0.000000310600 

        9      -0.371113367020       0.000000033892 

       10      -0.371113360964       0.000000006056 

       11      -0.371113361785       0.000000000821 

       12      -0.371113361744       0.000000000041 

       13      -0.371113361742       0.000000000002 

       14      -0.371113361743       0.000000000001 





CCD  correlation contribution: -0.37111336174274356
CCD  energy: -198.96554230310937




Final energy: -198.96554230310937
Final energy: -198.96554230310937
